Discarded 6 diffused primitive functions, 0 contracted functions
#INFO: **** input file is /home/j1k/repositories/qmcpack_workshop_2019/day2_nexus/pyscf/04_pyscf_diamond_dft_qmc/runs/diamond/scf/scf.py ****
#!/usr/bin/env python

from pyscf.pbc import df, scf


### generated system text ###
from numpy import array
from pyscf.pbc import gto as gto_loc
cell = gto_loc.Cell()
cell.a             = '''
                     3.37316115   3.37316115   0.00000000
                     0.00000000   3.37316115   3.37316115
                     3.37316115   0.00000000   3.37316115
                     '''
cell.basis         = 'bfd-vdz'
cell.dimension     = 3
cell.ecp           = 'bfd'
cell.unit          = 'B'
cell.atom          = '''
                     C    0.00000000   0.00000000   0.00000000
                     C    1.68658057   1.68658057   1.68658057
                     '''
cell.drop_exponent = 0.1
cell.verbose       = 5
cell.charge        = 0
cell.spin          = 0
cell.build()
kpts = array([
    [0.0, 0.0, 0.0],
    [0.4656748546088228, 0.4656748546088228, -0.4656748546088228]])
### end generated system text ###



gdf = df.GDF(cell,kpts)
gdf.auxbasis = 'weigend'
gdf.build()

mf = scf.KRKS(cell,kpts).density_fit()
mf.xc      ='b3lyp'
mf.tol     = 1e-10
mf.exxdiv  = 'ewald'
mf.with_df = gdf
mf.kernel()

### generated conversion text ###
from PyscfToQmcpack import savetoqmcpack
savetoqmcpack(cell,mf,'scf',kpts)
### end generated conversion text ###

#INFO: ******************** input file end ********************


System: ('Linux', 'viribus', '4.15.0-48-generic', '#51-Ubuntu SMP Wed Apr 3 08:28:49 UTC 2019', 'x86_64', 'x86_64')  Threads 16
Python 2.7.15rc1 (default, Nov 12 2018, 14:31:15) 
[GCC 7.3.0]
numpy 1.15.4  scipy 0.19.1
Date: Wed May  8 16:41:20 2019
PySCF version 1.5.4
PySCF path  /home/j1k/repositories/pyscf/pyscf
GIT HEAD      ref: refs/heads/master
GIT master branch  b10d0ee541f783312ac791d36702ff7a4bc1c637

[CONFIG] conf_file None
[INPUT] verbose = 5
[INPUT] max_memory = 4000 
[INPUT] num. atoms = 2
[INPUT] num. electrons = 8
[INPUT] charge = 0
[INPUT] spin (= nelec alpha-beta = 2S) = 0
[INPUT] symmetry False subgroup None
[INPUT] Mole.unit = B
[INPUT]  1 C      0.000000000000   0.000000000000   0.000000000000 AA    0.000000000000   0.000000000000   0.000000000000 Bohr
[INPUT]  2 C      0.892500002024   0.892500002024   0.892500002024 AA    1.686580570000   1.686580570000   1.686580570000 Bohr
[INPUT] ---------------- BASIS SET ---------------- 
[INPUT] l, kappa, [nprim/nctr], expnt,             c_1 c_2 ...
[INPUT] C
[INPUT] 0    0    [8    /1   ]  13.073594         -0.000705
                                6.541187          0.015176
                                3.272791          -0.121499
                                1.637494          -0.033512
                                0.819297          0.180113
                                0.409924          0.380369
                                0.2051            0.397529
                                0.102619          0.169852
[INPUT] 0    0    [1    /1   ]  0.127852             1
[INPUT] 1    0    [7    /1   ]  7.480076          0.021931
                                3.741035          0.054425
                                1.871016          0.112024
                                0.935757          0.210979
                                0.468003          0.289868
                                0.234064          0.302667
                                0.117063          0.191634
[INPUT] 1    0    [1    /1   ]  0.149161             1
[INPUT] 2    0    [1    /1   ]  0.561161             1

Ewald components = 1.76043195084573e-15, -36.7282243593125, 23.9525571243294
nuclear repulsion = -12.7756672349831
number of shells = 10
number of NR pGTOs = 76
number of NR cGTOs = 26
basis = bfd-vdz
ecp = bfd
CPU time:         0.77
lattice vectors  a1 [3.373161150, 3.373161150, 0.000000000]
                 a2 [0.000000000, 3.373161150, 3.373161150]
                 a3 [3.373161150, 0.000000000, 3.373161150]
dimension = 3
Cell volume = 76.7611
exp_to_discard = 0.1
rcut = 19.243077142883383 (nimgs = [5 5 5])
lattice sum = 911 cells
precision = 1e-08
pseudo = None
ke_cutoff = 210.04046196104096
    = [26 26 26] mesh (17576 PWs)
ew_eta = 2.01651
ew_cut = 3.4228673672384344 (nimgs = [1 1 1])


******** <class 'pyscf.pbc.df.df.GDF'> flags ********
mesh = [7 7 7] (343 PWs)
auxbasis = weigend
eta = 0.2
exp_to_discard = 0.1
_cderi_to_save = /home/j1k/repositories/qmcpack_workshop_2019/day2_nexus/pyscf/04_pyscf_diamond_dft_qmc/runs/diamond/scf/tmpnIoHof
len(kpts) = 2
num shells = 30, num cGTOs = 98
Drop 0 primitive fitting functions
make aux basis, num shells = 30, num cGTOs = 98
auxcell.rcut 12.824463399809424
Num uniq kpts 2


******** <class 'pyscf.pbc.dft.krks.KRKS'> flags ********
method = KRKS-KRHF-KSCF-SCF
initial guess = minao
damping factor = 0
level shift factor = 0
DIIS = <class 'pyscf.scf.diis.CDIIS'>
DIIS start cycle = 1
DIIS space = 8
SCF tol = 1e-07
SCF gradient tol = None
max. SCF cycles = 50
direct_scf = False
chkfile to save SCF result = /home/j1k/repositories/qmcpack_workshop_2019/day2_nexus/pyscf/04_pyscf_diamond_dft_qmc/runs/diamond/scf/tmp7W7kIa
max_memory 4000 MB (current use 189 MB)


******** PBC SCF flags ********
N kpts = 2
kpts = [[ 0.          0.          0.        ]
 [ 0.46567485  0.46567485 -0.46567485]]
Exchange divergence treatment (exxdiv) = ewald
Ewald components = 2.38405713413658e-42, -1.14020834016724, 0.905546164474779
    madelung (= occupied orbital energy shift) = 0.4693243513849312
    Total energy shift due to Ewald probe charge = -1/2 * Nelec*madelung/cell.vol = -1.87729740554
DF object = <pyscf.pbc.df.df.GDF object at 0x7fb5371f2050>
XC functionals = b3lyp
radial grids: 
    Treutler-Ahlrichs (JCP 102, 346 (M4)) radial grids
    
becke partition: Becke, JCP, 88, 2547 (1988)
pruning grids: <function nwchem_prune at 0x7fb5068ee6e0>
grids dens level: 3
symmetrized grids: False
atomic radii adjust function: <function treutler_atomic_radii_adjust at 0x7fb5068ee5f0>
Set gradient conv threshold to 0.000316228
cond(S) = [ 62153.80202198 147620.96759314]
atom C rad-grids = 75, ang-grids = [ 50  50  50  50  50  50  50  50  50  50  50  50  50  50  50  50  50  50
  50  50  50  50  50  86  86  86  86  86  86  86  86  86  86 266 266 266
 266 266 266 266 302 302 302 302 302 302 302 302 302 302 302 302 302 302
 302 302 302 302 302 302 266 266 266 266 266 266 266 266 266 266 266 266
 266 266 266]
tot grids = 27572
cell vol = 76.7611133  sum(weights) = 77.1162626
    CPU time for setting up grids     10.94 sec, wall time      1.62 sec
nelec by numeric integration = 9.454271022762498
    CPU time for vxc      6.82 sec, wall time      0.63 sec
Ewald components = 2.38405713413658e-42, -1.14020834016724, 0.905546164474779
    CPU time for vj and vk      0.25 sec, wall time      0.04 sec
E1 = 3.754016096813583  Ecoul = 0.762973261191527  Exc = -4.892917533996787
Ewald components = 1.76043195084573e-15, -36.7282243593125, 23.9525571243294
init E= -13.1515954109748
    CPU time for initialize scf    429.71 sec, wall time     39.01 sec
HOMO = 0.462606906449  LUMO = 0.675328232762
     k-point                  mo_energy
   0 ( 0.000  0.000  0.000)   [-0.71047468  0.45743368  0.46260188  0.46260691] [0.67532823 0.68997527 0.68997591 0.93016199 1.36590801 1.51304612
 1.51304615 1.85530574 1.86180767 1.86181057 2.29181523 2.29181714
 2.29193669 3.13879377 3.26063805 3.26064178 3.26203935 3.28929666
 3.28929671 4.33634826 4.33639099 4.33639597]
   1 ( 0.500 -0.000 -0.000)   [-0.3156741  -0.17085756  0.35322566  0.35322885] [ 0.78358002  0.80130107  0.80130421  1.0793339   1.32757483  1.44484371
  1.5345767   1.53458093  1.81069193  1.81069238  2.5936099   2.69904964
  2.69905176  2.7476075   2.74760751  2.84316311  3.38861344  3.38862001
  3.43366892  3.43367264  3.7027426  10.39398616]
nelec by numeric integration = 8.004458859008867
    CPU time for vxc      7.28 sec, wall time      0.66 sec
Ewald components = 2.38405713413658e-42, -1.14020834016724, 0.905546164474779
    CPU time for vj and vk      0.28 sec, wall time      0.04 sec
E1 = 4.334993054482576  Ecoul = 1.3283790784118703  Exc = -3.6734663908064933
Ewald components = 1.76043195084573e-15, -36.7282243593125, 23.9525571243294
cycle= 1 E= -10.7857614928952  delta_E= 2.37  |g|= 0.163  |ddm|= 6.31
    CPU time for cycle= 1      7.69 sec, wall time      0.71 sec
HOMO = 0.499188460774  LUMO = 0.792325763663
     k-point                  mo_energy
   0 ( 0.000  0.000  0.000)   [-0.33815542  0.48094154  0.48094675  0.49918846] [0.79232576 0.7931903  0.79319105 1.07221393 1.42620138 1.56995805
 1.56995826 1.93051938 1.93052164 1.93215365 2.37491035 2.37491195
 2.38551629 3.18305433 3.32355623 3.32355934 3.32389962 3.36354672
 3.36354675 4.41064655 4.41065083 4.41173421]
   1 ( 0.500 -0.000 -0.000)   [-0.10960252 -0.02891117  0.37359161  0.37359505] [ 0.90300521  0.90300821  0.90436691  1.16334399  1.41893257  1.52893507
  1.60485462  1.60485742  1.86557544  1.8655757   2.67218148  2.78484724
  2.78484844  2.81307178  2.81307193  2.90513785  3.46163995  3.46164504
  3.49837555  3.49837684  3.77120754 10.52846134]
nelec by numeric integration = 8.004785980694962
    CPU time for vxc      7.26 sec, wall time      0.65 sec
Ewald components = 2.38405713413658e-42, -1.14020834016724, 0.905546164474779
    CPU time for vj and vk      0.28 sec, wall time      0.04 sec
E1 = 4.368181472627032  Ecoul = 1.272815256686865  Exc = -3.654039394704799
Ewald components = 1.76043195084573e-15, -36.7282243593125, 23.9525571243294
cycle= 2 E= -10.788709900374  delta_E= -0.00295  |g|= 0.0198  |ddm|= 1.68
    CPU time for cycle= 2      7.68 sec, wall time      0.70 sec
HOMO = 0.491817294504  LUMO = 0.787864705789
     k-point                  mo_energy
   0 ( 0.000  0.000  0.000)   [-0.34210622  0.47373172  0.47373694  0.49181729] [0.78786471 0.78812033 0.78812105 1.06559349 1.42537061 1.56732816
 1.56732838 1.92727066 1.92727295 1.92863438 2.36853998 2.36854159
 2.37921043 3.18339234 3.32094405 3.32094715 3.32125077 3.35956615
 3.35956618 4.40674886 4.40675318 4.40796201]
   1 ( 0.500 -0.000 -0.000)   [-0.11473792 -0.03272504  0.36702216  0.36702561] [ 0.89863473  0.89863772  0.89947307  1.1612682   1.41362771  1.52373687
  1.60031508  1.60031793  1.86290231  1.86290252  2.66695891  2.77836739
  2.77836868  2.80979875  2.80979893  2.90349126  3.45780533  3.45781046
  3.49553597  3.49553734  3.76828795 10.51432655]
nelec by numeric integration = 8.004723931785115
    CPU time for vxc      7.09 sec, wall time      0.64 sec
Ewald components = 2.38405713413658e-42, -1.14020834016724, 0.905546164474779
    CPU time for vj and vk      0.29 sec, wall time      0.04 sec
E1 = 4.3631477235501865  Ecoul = 1.2810510599805702  Exc = -3.6572841349996303
Ewald components = 1.76043195084573e-15, -36.7282243593125, 23.9525571243294
cycle= 3 E= -10.788752586452  delta_E= -4.27e-05  |g|= 0.0023  |ddm|= 0.161
    CPU time for cycle= 3      7.51 sec, wall time      0.70 sec
HOMO = 0.492590580591  LUMO = 0.788422474846
     k-point                  mo_energy
   0 ( 0.000  0.000  0.000)   [-0.34163066  0.47448082  0.47448603  0.49259058] [0.78842247 0.78875414 0.78875487 1.06641866 1.42551427 1.56761396
 1.56761418 1.92767781 1.92768009 1.92900338 2.36919236 2.36919397
 2.37986891 3.18343576 3.32129449 3.32129759 3.3216093  3.360046
 3.36004603 4.40722983 4.40723414 4.40843609]
   1 ( 0.500 -0.000 -0.000)   [-0.11421969 -0.0322137   0.36774439  0.36774784] [ 0.89914256  0.89914555  0.90005251  1.16161386  1.41420408  1.52434474
  1.60080224  1.60080509  1.86326946  1.86326967  2.6676045   2.77907676
  2.77907804  2.81020133  2.8102015   2.90370861  3.4582608   3.45826592
  3.49586028  3.49586164  3.76863674 10.51564678]
nelec by numeric integration = 8.004729631449965
    CPU time for vxc      7.12 sec, wall time      0.65 sec
Ewald components = 2.38405713413658e-42, -1.14020834016724, 0.905546164474779
    CPU time for vj and vk      0.27 sec, wall time      0.04 sec
E1 = 4.363661719656485  Ecoul = 1.280239585838313  Exc = -3.656987236877062
Ewald components = 1.76043195084573e-15, -36.7282243593125, 23.9525571243294
cycle= 4 E= -10.7887531663654  delta_E= -5.8e-07  |g|= 8.9e-05  |ddm|= 0.0195
    CPU time for cycle= 4      7.53 sec, wall time      0.70 sec
HOMO = 0.492583681279  LUMO = 0.788432417612
     k-point                  mo_energy
   0 ( 0.000  0.000  0.000)   [-0.3416248   0.47449557  0.47450079  0.49258368] [0.78843242 0.78876132 0.78876204 1.06643072 1.4255153  1.5676173
 1.56761752 1.92768105 1.92768333 1.92901041 2.3692013  2.36920292
 2.37986938 3.18343624 3.32130067 3.32130376 3.32161065 3.36005208
 3.36005212 4.40723625 4.40724057 4.40844169]
   1 ( 0.500 -0.000 -0.000)   [-0.11420336 -0.03222469  0.36775606  0.36775951] [ 0.89915417  0.89915716  0.90006335  1.16161945  1.41420843  1.52433907
  1.60080526  1.6008081   1.86326583  1.86326604  2.6676041   2.77908654
  2.77908783  2.81021149  2.81021167  2.90371815  3.45826877  3.45827389
  3.49586541  3.49586677  3.76864401 10.51565844]
nelec by numeric integration = 8.0047296243673
    CPU time for vxc      7.20 sec, wall time      0.65 sec
Ewald components = 2.38405713413658e-42, -1.14020834016724, 0.905546164474779
    CPU time for vj and vk      0.28 sec, wall time      0.04 sec
E1 = 4.363665419233449  Ecoul = 1.2802345034149345  Exc = -3.656985854470266
Ewald components = 1.76043195084573e-15, -36.7282243593125, 23.9525571243294
cycle= 5 E= -10.788753166805  delta_E= -4.4e-10  |g|= 6.92e-05  |ddm|= 0.000395
    CPU time for cycle= 5      7.62 sec, wall time      0.70 sec
HOMO = 0.492584587841  LUMO = 0.78843247767
     k-point                  mo_energy
   0 ( 0.000  0.000  0.000)   [-0.34162454  0.47449579  0.47450101  0.49258459] [0.78843248 0.7887619  0.78876262 1.06643114 1.42551534 1.56761745
 1.56761767 1.92768128 1.92768356 1.92901051 2.36920169 2.3692033
 2.37986965 3.18343622 3.32130086 3.32130395 3.32161078 3.36005237
 3.3600524  4.40723654 4.40724086 4.40844194]
   1 ( 0.500 -0.000 -0.000)   [-0.11420324 -0.03222397  0.36775645  0.3677599 ] [ 0.89915443  0.89915742  0.90006342  1.16161954  1.41420875  1.52433952
  1.60080551  1.60080835  1.86326634  1.86326655  2.66760478  2.77908689
  2.77908817  2.81021155  2.81021173  2.90371772  3.45826907  3.45827419
  3.49586552  3.49586688  3.76864432 10.51565928]
nelec by numeric integration = 8.004729630587944
    CPU time for vxc      6.78 sec, wall time      0.62 sec
Ewald components = 2.38405713413658e-42, -1.14020834016724, 0.905546164474779
    CPU time for vj and vk      0.29 sec, wall time      0.04 sec
E1 = 4.3636658135209565  Ecoul = 1.2802338825060045  Exc = -3.656985626854988
Ewald components = 1.76043195084573e-15, -36.7282243593125, 23.9525571243294
Extra cycle  E= -10.7887531658111  delta_E= 9.94e-10  |g|= 0.000115  |ddm|= 0.000372
    CPU time for scf_cycle    474.96 sec, wall time     43.18 sec
    CPU time for SCF    474.99 sec, wall time     43.19 sec
converged SCF energy = -10.7887531658111
Using Python 2.x
Wavefunction successfully saved to QMCPACK HDF5 Format
Use: "convert4qmc -pyscf  scf.h5" to generate QMCPACK input files
