Discarded 6 diffused primitive functions, 0 contracted functions
#INFO: **** input file is /home/j1k/repositories/qmcpack_workshop_2019/day2_nexus/pyscf/04_pyscf_diamond_dft_qmc/runs/diamond/scf/scf.py ****
#!/usr/bin/env python

from pyscf.pbc import df, scf


### generated system text ###
from numpy import array
from pyscf.pbc import gto as gto_loc
cell = gto_loc.Cell()
cell.a             = '''
                     1.78500000   1.78500000   0.00000000
                     0.00000000   1.78500000   1.78500000
                     1.78500000   0.00000000   1.78500000
                     '''
cell.basis         = 'bfd-vdz'
cell.dimension     = 3
cell.ecp           = 'bfd'
cell.unit          = 'A'
cell.atom          = '''
                     C    0.00000000   0.00000000   0.00000000
                     C    0.89250000   0.89250000   0.89250000
                     '''
cell.drop_exponent = 0.1
cell.verbose       = 5
cell.charge        = 0
cell.spin          = 0
cell.build()
kpts = array([
    [0.0, 0.0, 0.0],
    [0.8799979421820149, 0.8799979421820149, -0.8799979421820149]])
### end generated system text ###



gdf = df.GDF(cell,kpts)
gdf.auxbasis = 'weigend'
gdf.build()

mf = scf.KRHF(cell,kpts).density_fit()
mf.exxdiv  = 'ewald'
mf.with_df = gdf
mf.kernel()

### generated conversion text ###
from PyscfToQmcpack import savetoqmcpack
savetoqmcpack(cell,mf,'scf',kpts)
### end generated conversion text ###

#INFO: ******************** input file end ********************


System: ('Linux', 'viribus', '4.15.0-48-generic', '#51-Ubuntu SMP Wed Apr 3 08:28:49 UTC 2019', 'x86_64', 'x86_64')  Threads 16
Python 2.7.15rc1 (default, Nov 12 2018, 14:31:15) 
[GCC 7.3.0]
numpy 1.15.4  scipy 0.19.1
Date: Wed May  8 17:02:19 2019
PySCF version 1.5.4
PySCF path  /home/j1k/repositories/pyscf/pyscf
GIT HEAD      ref: refs/heads/master
GIT master branch  b10d0ee541f783312ac791d36702ff7a4bc1c637

[CONFIG] conf_file None
[INPUT] verbose = 5
[INPUT] max_memory = 4000 
[INPUT] num. atoms = 2
[INPUT] num. electrons = 8
[INPUT] charge = 0
[INPUT] spin (= nelec alpha-beta = 2S) = 0
[INPUT] symmetry False subgroup None
[INPUT] Mole.unit = A
[INPUT]  1 C      0.000000000000   0.000000000000   0.000000000000 AA    0.000000000000   0.000000000000   0.000000000000 Bohr
[INPUT]  2 C      0.892500000000   0.892500000000   0.892500000000 AA    1.686580566174   1.686580566174   1.686580566174 Bohr
[INPUT] ---------------- BASIS SET ---------------- 
[INPUT] l, kappa, [nprim/nctr], expnt,             c_1 c_2 ...
[INPUT] C
[INPUT] 0    0    [8    /1   ]  13.073594         -0.000705
                                6.541187          0.015176
                                3.272791          -0.121499
                                1.637494          -0.033512
                                0.819297          0.180113
                                0.409924          0.380369
                                0.2051            0.397529
                                0.102619          0.169852
[INPUT] 0    0    [1    /1   ]  0.127852             1
[INPUT] 1    0    [7    /1   ]  7.480076          0.021931
                                3.741035          0.054425
                                1.871016          0.112024
                                0.935757          0.210979
                                0.468003          0.289868
                                0.234064          0.302667
                                0.117063          0.191634
[INPUT] 1    0    [1    /1   ]  0.149161             1
[INPUT] 2    0    [1    /1   ]  0.561161             1

Ewald components = 1.76043198403506e-15, -36.7282245445858, 23.9525572427489
nuclear repulsion = -12.7756673018369
number of shells = 10
number of NR pGTOs = 76
number of NR cGTOs = 26
basis = bfd-vdz
ecp = bfd
CPU time:         0.72
lattice vectors  a1 [3.373161132, 3.373161132, 0.000000000]
                 a2 [0.000000000, 3.373161132, 3.373161132]
                 a3 [3.373161132, 0.000000000, 3.373161132]
dimension = 3
Cell volume = 76.7611
exp_to_discard = 0.1
rcut = 19.243077142883383 (nimgs = [5 5 5])
lattice sum = 911 cells
precision = 1e-08
pseudo = None
ke_cutoff = 210.04046224479163
    = [26 26 26] mesh (17576 PWs)
ew_eta = 2.01651
ew_cut = 3.4228673507667566 (nimgs = [1 1 1])


******** <class 'pyscf.pbc.df.df.GDF'> flags ********
mesh = [7 7 7] (343 PWs)
auxbasis = weigend
eta = 0.2
exp_to_discard = 0.1
_cderi_to_save = /home/j1k/repositories/qmcpack_workshop_2019/day2_nexus/pyscf/04_pyscf_diamond_dft_qmc/runs/diamond/scf/tmpnOpdXE
len(kpts) = 2
num shells = 30, num cGTOs = 98
Drop 0 primitive fitting functions
make aux basis, num shells = 30, num cGTOs = 98
auxcell.rcut 12.824463399809424
Num uniq kpts 2


******** <class 'pyscf.pbc.scf.khf.KRHF'> flags ********
method = KRHF-KSCF-SCF
initial guess = minao
damping factor = 0
level shift factor = 0
DIIS = <class 'pyscf.scf.diis.CDIIS'>
DIIS start cycle = 1
DIIS space = 8
SCF tol = 1e-07
SCF gradient tol = None
max. SCF cycles = 50
direct_scf = False
chkfile to save SCF result = /home/j1k/repositories/qmcpack_workshop_2019/day2_nexus/pyscf/04_pyscf_diamond_dft_qmc/runs/diamond/scf/tmp4Rrmw8
max_memory 4000 MB (current use 197 MB)


******** PBC SCF flags ********
N kpts = 2
kpts = [[ 0.          0.          0.        ]
 [ 0.87999794  0.87999794 -0.87999794]]
Exchange divergence treatment (exxdiv) = ewald
Ewald components = 2.3840572324607e-42, -1.14020834591461, 0.905546168994174
    madelung (= occupied orbital energy shift) = 0.4693243538408729
    Total energy shift due to Ewald probe charge = -1/2 * Nelec*madelung/cell.vol = -1.87729741536
DF object = <pyscf.pbc.df.df.GDF object at 0x7f782638bf90>
Set gradient conv threshold to 0.000316228
cond(S) = [62153.80803905 63252.14958731]
Ewald components = 2.3840572324607e-42, -1.14020834591461, 0.905546168994174
    CPU time for vj and vk      0.49 sec, wall time      0.06 sec
E1 = (3.5176338199086974+4.1632847539637926e-15j)  E_coul = (-190.03583272268935-2.338385273942433e-15j)
Ewald components = 1.76043198403506e-15, -36.7282245445858, 23.9525572427489
init E= -199.293866204618
    CPU time for initialize scf    414.66 sec, wall time     37.73 sec
HOMO = -1.67745062662  LUMO = -0.734073245999
     k-point                  mo_energy
   0 ( 0.000  0.000  0.000)   [-44.61885013  -1.81019678  -1.70248421  -1.70248421] [-0.71910141 -0.71910141 -0.71242453 -0.46024858  1.53319903  1.75044712
  1.75044712  2.12135879  2.12535401  2.12535401  2.61574756  2.61594688
  2.61594688  3.35573648  3.59805293  3.59847836  3.59847836  3.64477132
  3.64477132  4.71261461  4.71290396  4.71290397]
   1 ( 0.945 -0.000 -0.000)   [-45.14240208  -1.68664627  -1.67745063  -1.67745063] [-0.73407325 -0.73407325 -0.73385167 -0.47705689  1.52087225  1.74200068
  1.74200068  2.13291694  2.15952113  2.15952113  2.61054289  2.61054289
  2.64834696  3.2433927   3.59413982  3.59413982  3.6388574   3.6388574
  3.71112593  4.70457551  4.70457551  4.84507058]
Ewald components = 2.3840572324607e-42, -1.14020834591461, 0.905546168994174
    CPU time for vj and vk      0.66 sec, wall time      0.06 sec
E1 = (4.821721723636815+3.197430791272368e-16j)  E_coul = (-42.18593765630279+2.15934041480903e-14j)
Ewald components = 1.76043198403506e-15, -36.7282245445858, 23.9525572427489
cycle= 1 E= -50.1398832345029  delta_E=  149  |g|= 7.06  |ddm|= 6.97
    CPU time for cycle= 1      0.88 sec, wall time      0.07 sec
HOMO = -9.84939694331  LUMO = 1.07322747198
     k-point                  mo_energy
   0 ( 0.000  0.000  0.000)   [-10.7577865   -9.86478979  -9.86478979  -9.84939694] [1.07322747 1.08256376 1.08256376 1.38092844 1.64832629 1.8545448
 1.8545448  2.23732311 2.23732311 2.23743621 2.73773935 2.73773935
 2.73792244 3.42248388 3.64210431 3.64244983 3.64244983 3.71049542
 3.71049542 4.77284422 4.77421953 4.77421953]
   1 ( 0.945 -0.000 -0.000)   [-10.75186492  -9.88111776  -9.87163545  -9.87163545] [1.08962706 1.09304372 1.09304372 1.3882525  1.64549884 1.84577455
 1.84577455 2.25199375 2.27354689 2.27354689 2.72802644 2.72802644
 2.75867906 3.3056687  3.6402458  3.6402458  3.70193269 3.70193269
 3.76594571 4.76506792 4.76506792 4.90340119]
Ewald components = 2.3840572324607e-42, -1.14020834591461, 0.905546168994174
    CPU time for vj and vk      0.74 sec, wall time      0.06 sec
E1 = (4.768050017884822+1.7420418406410842e-15j)  E_coul = (-42.26463718985816+1.1169065889174434e-13j)
Ewald components = 1.76043198403506e-15, -36.7282245445858, 23.9525572427489
cycle= 2 E= -50.2722544738103  delta_E= -0.132  |g|= 6.35  |ddm|= 3.38
    CPU time for cycle= 2      0.97 sec, wall time      0.08 sec
HOMO = -9.76572989192  LUMO = 1.00247042339
     k-point                  mo_energy
   0 ( 0.000  0.000  0.000)   [-10.75896627  -9.84544546  -9.84544546  -9.76572989] [1.00247042 1.06306149 1.06306149 1.36731709 1.64801937 1.85315651
 1.85315651 2.23794219 2.23794219 2.23815274 2.73737197 2.73737197
 2.73748267 3.42198187 3.64198071 3.64246442 3.64246442 3.71068258
 3.71068258 4.77300947 4.77424124 4.77424124]
   1 ( 0.945 -0.000 -0.000)   [-10.75302087  -9.85193919  -9.85193919  -9.79715952] [1.01959145 1.07343626 1.07343626 1.37323729 1.64517596 1.84424504
 1.84424504 2.25297735 2.27406365 2.27406365 2.72770051 2.72770051
 2.75838799 3.30517504 3.64028955 3.64028955 3.7020599  3.7020599
 3.76579038 4.76508006 4.76508006 4.90352636]
Ewald components = 2.3840572324607e-42, -1.14020834591461, 0.905546168994174
    CPU time for vj and vk      0.71 sec, wall time      0.06 sec
E1 = (4.778676449489203+7.43566178681293e-16j)  E_coul = (-42.771276198611226+2.952347567808378e-14j)
Ewald components = 1.76043198403506e-15, -36.7282245445858, 23.9525572427489
cycle= 3 E= -50.7682670509589  delta_E= -0.496  |g|= 0.481  |ddm|= 1.78
    CPU time for cycle= 3      0.94 sec, wall time      0.08 sec
HOMO = -9.89485725026  LUMO = 1.10623070927
     k-point                  mo_energy
   0 ( 0.000  0.000  0.000)   [-10.76217072  -9.95627325  -9.89485725  -9.89485725] [1.10623071 1.10623071 1.14837144 1.40462693 1.64997569 1.85485712
 1.85485712 2.24228876 2.24228876 2.24420668 2.7363004  2.7363004
 2.73674626 3.42067347 3.64203082 3.64248072 3.64248072 3.71151225
 3.71151225 4.77360566 4.774496   4.774496  ]
   1 ( 0.945 -0.000 -0.000)   [-10.75616942  -9.98822838  -9.90086204  -9.90086204] [1.11598887 1.11598887 1.15829082 1.41861049 1.64700152 1.84625919
 1.84625919 2.25848654 2.27832207 2.27832207 2.72667406 2.72667406
 2.75780841 3.30421081 3.64023906 3.64023906 3.702764   3.702764
 3.76561598 4.76532048 4.76532048 4.90398146]
Ewald components = 2.3840572324607e-42, -1.14020834591461, 0.905546168994174
    CPU time for vj and vk      0.77 sec, wall time      0.06 sec
E1 = (4.774150382839738+9.069080122298123e-16j)  E_coul = (-42.78243870282391+2.969586382350897e-14j)
Ewald components = 1.76043198403506e-15, -36.7282245445858, 23.9525572427489
cycle= 4 E= -50.7839556218211  delta_E= -0.0157  |g|= 0.385  |ddm|= 0.512
    CPU time for cycle= 4      0.99 sec, wall time      0.08 sec
HOMO = -9.97885593052  LUMO = 1.15081968472
     k-point                  mo_energy
   0 ( 0.000  0.000  0.000)   [-10.78149308 -10.18511682  -9.97885593  -9.97885593] [1.15081968 1.15081968 1.2426264  1.49665493 1.66585979 1.85642057
 1.85642057 2.27416047 2.27416047 2.27623611 2.73182858 2.73182858
 2.73296795 3.41771138 3.64330201 3.64346106 3.64346106 3.7128746
 3.7128746  4.77399476 4.77436324 4.77436324]
   1 ( 0.945 -0.000 -0.000)   [-10.77552484 -10.2184473   -9.98485072  -9.98485072] [1.16009251 1.16009251 1.24363524 1.52032623 1.66222943 1.84823519
 1.84823519 2.29181421 2.31080234 2.31080234 2.722148   2.722148
 2.75426124 3.30153318 3.64067035 3.64067035 3.70403438 3.70403438
 3.76587255 4.76517901 4.76517901 4.90427515]
Ewald components = 2.3840572324607e-42, -1.14020834591461, 0.905546168994174
    CPU time for vj and vk      0.79 sec, wall time      0.07 sec
E1 = (4.7864030874616095+1.0806141409209352e-15j)  E_coul = (-42.81688196453559+2.4815219323848225e-15j)
Ewald components = 1.76043198403506e-15, -36.7282245445858, 23.9525572427489
cycle= 5 E= -50.8061461789109  delta_E= -0.0222  |g|= 0.0948  |ddm|= 1.64
    CPU time for cycle= 5      1.02 sec, wall time      0.09 sec
HOMO = -9.89353123542  LUMO = 1.09284489701
     k-point                  mo_energy
   0 ( 0.000  0.000  0.000)   [-10.7694718   -9.90966823  -9.89353124  -9.89353124] [1.0928449  1.0928449  1.10604796 1.38673018 1.65190728 1.85312766
 1.85312766 2.24783573 2.24806425 2.24806425 2.73002205 2.73002205
 2.73019543 3.4180394  3.64100849 3.64147517 3.64147517 3.71189269
 3.71189269 4.77239646 4.77342484 4.77342484]
   1 ( 0.945 -0.000 -0.000)   [-10.76356411  -9.94299498  -9.9005476   -9.9005476 ] [1.1029811  1.1029811  1.11959744 1.3966369  1.64841375 1.84437326
 1.84437326 2.26427687 2.28495382 2.28495382 2.72056175 2.72056175
 2.75202769 3.30116034 3.63894981 3.63894981 3.7030206  3.7030206
 3.76409728 4.76426267 4.76426267 4.90246551]
Ewald components = 2.3840572324607e-42, -1.14020834591461, 0.905546168994174
    CPU time for vj and vk      0.92 sec, wall time      0.08 sec
E1 = (4.789891964303068+9.863190451007975e-16j)  E_coul = (-42.82068944458685-9.701983140486536e-15j)
Ewald components = 1.76043198403506e-15, -36.7282245445858, 23.9525572427489
cycle= 6 E= -50.8064647821207  delta_E= -0.000319  |g|= 0.063  |ddm|= 0.213
    CPU time for cycle= 6      1.15 sec, wall time      0.10 sec
HOMO = -9.8639377194  LUMO = 1.07429773236
     k-point                  mo_energy
   0 ( 0.000  0.000  0.000)   [-10.76696645  -9.87843759  -9.87843759  -9.86393772] [1.07429773 1.08328269 1.08328269 1.37791406 1.64929543 1.85255853
 1.85255853 2.24195214 2.24234229 2.24234229 2.72954277 2.72954277
 2.72955143 3.41817062 3.64051739 3.64104084 3.64104084 3.71160196
 3.71160196 4.77203847 4.77315266 4.77315266]
   1 ( 0.945 -0.000 -0.000)   [-10.76104084  -9.89729028  -9.88564428  -9.88564428] [1.08959124 1.09358591 1.09358591 1.38591022 1.64590099 1.84371763
 1.84371763 2.25840356 2.27924295 2.27924295 2.72013069 2.72013069
 2.75150507 3.30118022 3.63856213 3.63856213 3.70272181 3.70272181
 3.76370413 4.76399429 4.76399429 4.90202658]
Ewald components = 2.3840572324607e-42, -1.14020834591461, 0.905546168994174
    CPU time for vj and vk      0.89 sec, wall time      0.07 sec
E1 = (4.79125532953939+9.439267401566143e-16j)  E_coul = (-42.822159224473104-1.2402188651061685e-14j)
Ewald components = 1.76043198403506e-15, -36.7282245445858, 23.9525572427489
cycle= 7 E= -50.8065711967706  delta_E= -0.000106  |g|= 0.0508  |ddm|= 0.127
    CPU time for cycle= 7      1.12 sec, wall time      0.09 sec
HOMO = -9.87543799209  LUMO = 1.08253255254
     k-point                  mo_energy
   0 ( 0.000  0.000  0.000)   [-10.76745425  -9.88184641  -9.88184641  -9.87543799] [1.08253255 1.0855257  1.0855257  1.37969317 1.64965339 1.85257462
 1.85257462 2.2424084  2.24275592 2.24275592 2.72926243 2.72926243
 2.72930895 3.41823068 3.64049988 3.64101148 3.64101148 3.71145788
 3.71145788 4.77195109 4.77300448 4.77300448]
   1 ( 0.945 -0.000 -0.000)   [-10.76149141  -9.90882186  -9.88904546  -9.88904546] [1.09582389 1.09582389 1.09756667 1.38802561 1.6462105  1.84375818
 1.84375818 2.25885095 2.2796398  2.2796398  2.71985169 2.71985169
 2.75128116 3.30124388 3.63850745 3.63850745 3.70257831 3.70257831
 3.76366089 4.76384565 4.76384565 4.90188835]
Ewald components = 2.3840572324607e-42, -1.14020834591461, 0.905546168994174
    CPU time for vj and vk      0.92 sec, wall time      0.08 sec
E1 = (4.792937786874143+8.739753712405651e-16j)  E_coul = (-42.8239407580611-1.610788325639989e-14j)
Ewald components = 1.76043198403506e-15, -36.7282245445858, 23.9525572427489
cycle= 8 E= -50.8066702730239  delta_E= -9.91e-05  |g|= 0.0402  |ddm|= 0.138
    CPU time for cycle= 8      1.15 sec, wall time      0.10 sec
HOMO = -9.85386644411  LUMO = 1.0646728266
     k-point                  mo_energy
   0 ( 0.000  0.000  0.000)   [-10.76751374  -9.87686248  -9.87686248  -9.85386644] [1.06467283 1.08013231 1.08013231 1.37506781 1.64957677 1.85218258
 1.85218258 2.24164264 2.24218509 2.24218509 2.72870958 2.72870958
 2.72871781 3.41839113 3.64032164 3.64082785 3.64082785 3.71112488
 3.71112488 4.77156667 4.77269006 4.77269006]
   1 ( 0.945 -0.000 -0.000)   [-10.76154121  -9.88711705  -9.88410291  -9.88410291] [1.0804559  1.09047557 1.09047557 1.38244797 1.64608318 1.8433427
 1.8433427  2.25822907 2.27908111 2.27908111 2.71930859 2.71930859
 2.7507506  3.30130295 3.63829126 3.63829126 3.70225331 3.70225331
 3.76348477 4.76353415 4.76353415 4.90145975]
Ewald components = 2.3840572324607e-42, -1.14020834591461, 0.905546168994174
    CPU time for vj and vk      0.91 sec, wall time      0.08 sec
E1 = (4.795562117739346+7.401915994194319e-16j)  E_coul = (-42.826697031444965-2.680136928362442e-14j)
Ewald components = 1.76043198403506e-15, -36.7282245445858, 23.9525572427489
cycle= 9 E= -50.8068022155425  delta_E= -0.000132  |g|= 0.0287  |ddm|= 0.244
    CPU time for cycle= 9      1.14 sec, wall time      0.10 sec
HOMO = -9.87743016566  LUMO = 1.08012525597
     k-point                  mo_energy
   0 ( 0.000  0.000  0.000)   [-10.76916917  -9.88500921  -9.88500921  -9.87743017] [1.08012526 1.08419837 1.08419837 1.37829843 1.65096881 1.85215775
 1.85215775 2.24380494 2.24430264 2.24430264 2.72800619 2.72800619
 2.72813361 3.41856945 3.64035556 3.64081315 3.64081315 3.71074008
 3.71074008 4.77127335 4.77230358 4.77230358]
   1 ( 0.945 -0.000 -0.000)   [-10.76316826  -9.91065452  -9.89222638  -9.89222638] [1.09453636 1.09453636 1.09551962 1.38614643 1.647318   1.84338358
 1.84338358 2.2604504  2.28116147 2.28116147 2.71860019 2.71860019
 2.75020396 3.30146058 3.63819095 3.63819095 3.70187531 3.70187531
 3.76344886 4.76314784 4.76314785 4.90110867]
Ewald components = 2.3840572324607e-42, -1.14020834591461, 0.905546168994174
    CPU time for vj and vk      0.87 sec, wall time      0.07 sec
E1 = (4.799892676310576+5.234121512945333e-16j)  E_coul = (-42.83115548295311-4.359847986107335e-14j)
Ewald components = 1.76043198403506e-15, -36.7282245445858, 23.9525572427489
cycle= 10 E= -50.8069301084794  delta_E= -0.000128  |g|= 0.0172  |ddm|= 0.408
    CPU time for cycle= 10      1.10 sec, wall time      0.09 sec
HOMO = -9.87667398085  LUMO = 1.08113193673
     k-point                  mo_energy
   0 ( 0.000  0.000  0.000)   [-10.76818017  -9.88297754  -9.88297754  -9.87667398] [1.08113194 1.08436386 1.08436386 1.37846493 1.64990189 1.85206868
 1.85206868 2.24128908 2.24172879 2.24172879 2.72773544 2.72773544
 2.72784284 3.41863058 3.64014467 3.64061937 3.64061937 3.71059846
 3.71059846 4.77117966 4.77215537 4.77215538]
   1 ( 0.945 -0.000 -0.000)   [-10.76217953  -9.91003799  -9.8903223   -9.8903223 ] [1.09481556 1.09481556 1.09692205 1.38604381 1.64627867 1.84329625
 1.84329625 2.25785232 2.2785643  2.2785643  2.71835535 2.71835535
 2.74997576 3.30149388 3.63800674 3.63800674 3.70172021 3.70172021
 3.76327794 4.76300046 4.76300046 4.90097935]
Ewald components = 2.3840572324607e-42, -1.14020834591461, 0.905546168994174
    CPU time for vj and vk      0.84 sec, wall time      0.07 sec
E1 = (4.801060136681201+4.675554106207958e-16j)  E_coul = (-42.83235479166433-4.6977179091189925e-14j)
Ewald components = 1.76043198403506e-15, -36.7282245445858, 23.9525572427489
cycle= 11 E= -50.80696195682  delta_E= -3.18e-05  |g|= 0.0176  |ddm|= 0.152
    CPU time for cycle= 11      1.08 sec, wall time      0.09 sec
HOMO = -9.87592022917  LUMO = 1.08096101789
     k-point                  mo_energy
   0 ( 0.000  0.000  0.000)   [-10.76812371  -9.88278981  -9.88278981  -9.87592023] [1.08096102 1.08442568 1.08442568 1.37850685 1.64999031 1.85213629
 1.85213629 2.24154105 2.24206262 2.24206262 2.72800106 2.72800106
 2.72808822 3.41859301 3.64017628 3.64065251 3.64065251 3.7107305
 3.7107305  4.77131027 4.77228439 4.77228439]
   1 ( 0.945 -0.000 -0.000)   [-10.76211481  -9.90927577  -9.89021952  -9.89021952] [1.09496452 1.09496452 1.09708377 1.38576748 1.64636646 1.8433798
 1.8433798  2.25812107 2.27889939 2.27889939 2.71861926 2.71861926
 2.75021094 3.30140069 3.63803506 3.63803506 3.70184018 3.70184018
 3.76334187 4.76313019 4.76313019 4.90112339]
Ewald components = 2.3840572324607e-42, -1.14020834591461, 0.905546168994174
    CPU time for vj and vk      0.86 sec, wall time      0.07 sec
E1 = (4.799494423924858+4.785532864079456e-16j)  E_coul = (-42.830852323011804-4.68480506124469e-14j)
Ewald components = 1.76043198403506e-15, -36.7282245445858, 23.9525572427489
cycle= 12 E= -50.8070252009239  delta_E= -6.32e-05  |g|= 0.014  |ddm|= 0.166
    CPU time for cycle= 12      1.09 sec, wall time      0.09 sec
HOMO = -9.87546684732  LUMO = 1.08117883362
     k-point                  mo_energy
   0 ( 0.000  0.000  0.000)   [-10.76774514  -9.88209047  -9.88209047  -9.87546685] [1.08117883 1.08467716 1.08467716 1.37930974 1.64986471 1.85227119
 1.85227119 2.24165085 2.24215171 2.24215171 2.72851753 2.72851753
 2.72859807 3.41853783 3.64029718 3.64077841 3.64077841 3.71096979
 3.71096979 4.77155391 4.77252916 4.77252916]
   1 ( 0.945 -0.000 -0.000)   [-10.76173321  -9.90887065  -9.8896181   -9.8896181 ] [1.09531788 1.09531788 1.09770965 1.38621762 1.64627019 1.84353351
 1.84353351 2.25820232 2.2789811  2.2789811  2.71913434 2.71913434
 2.75069831 3.30131724 3.63816954 3.63816954 3.70206413 3.70206413
 3.763519   4.76337522 4.76337522 4.90139863]
Ewald components = 2.3840572324607e-42, -1.14020834591461, 0.905546168994174
    CPU time for vj and vk      0.83 sec, wall time      0.07 sec
E1 = (4.796508644322274+4.973641941005691e-16j)  E_coul = (-42.82789415788909-4.7066083669333736e-14j)
Ewald components = 1.76043198403506e-15, -36.7282245445858, 23.9525572427489
cycle= 13 E= -50.8070528154037  delta_E= -2.76e-05  |g|= 0.0136  |ddm|= 0.218
    CPU time for cycle= 13      1.06 sec, wall time      0.09 sec
HOMO = -9.87607166751  LUMO = 1.08127153048
     k-point                  mo_energy
   0 ( 0.000  0.000  0.000)   [-10.76775329  -9.88215927  -9.88215927  -9.87607167] [1.08127153 1.08470714 1.08470714 1.37972874 1.64986896 1.85227423
 1.85227423 2.24179992 2.24221991 2.24221991 2.72854756 2.72854756
 2.72864458 3.41853676 3.64033455 3.64081571 3.64081571 3.71098685
 3.71098685 4.77157635 4.77254266 4.77254266]
   1 ( 0.945 -0.000 -0.000)   [-10.76173959  -9.90955253  -9.88971823  -9.88971823] [1.09538364 1.09538364 1.09796107 1.38653422 1.64627361 1.8435425
 1.8435425  2.25834472 2.27904004 2.27904004 2.71916644 2.71916644
 2.75075269 3.30132212 3.63820312 3.63820312 3.7020785  3.7020785
 3.76357028 4.76338858 4.76338858 4.901422  ]
Ewald components = 2.3840572324607e-42, -1.14020834591461, 0.905546168994174
    CPU time for vj and vk      0.94 sec, wall time      0.08 sec
E1 = (4.7963552733629875+4.923294302620895e-16j)  E_coul = (-42.82774713926351-4.674277458149856e-14j)
Ewald components = 1.76043198403506e-15, -36.7282245445858, 23.9525572427489
cycle= 14 E= -50.8070591677374  delta_E= -6.35e-06  |g|= 0.0143  |ddm|= 0.0543
    CPU time for cycle= 14      1.16 sec, wall time      0.10 sec
HOMO = -9.87554405105  LUMO = 1.08089985851
     k-point                  mo_energy
   0 ( 0.000  0.000  0.000)   [-10.76780335  -9.8821134   -9.8821134   -9.87554405] [1.08089986 1.08455643 1.08455643 1.37935075 1.64989281 1.85223951
 1.85223951 2.24173225 2.24215046 2.24215046 2.72845263 2.72845263
 2.72852999 3.41855286 3.64029982 3.64078373 3.64078373 3.71094735
 3.71094735 4.77151999 4.77249313 4.77249313]
   1 ( 0.945 -0.000 -0.000)   [-10.76179174  -9.90919553  -9.88974114  -9.88974114] [1.09530219 1.09530219 1.09781603 1.38608025 1.64628443 1.84351264
 1.84351264 2.25829262 2.27897464 2.27897464 2.71907476 2.71907476
 2.75065907 3.3013089  3.63815173 3.63815173 3.70203503 3.70203503
 3.76355262 4.76333811 4.76333811 4.90136908]
Ewald components = 2.3840572324607e-42, -1.14020834591461, 0.905546168994174
    CPU time for vj and vk      1.06 sec, wall time      0.09 sec
E1 = (4.796945878656964+4.895647147222515e-16j)  E_coul = (-42.82835350406105-4.828516059207644e-14j)
Ewald components = 1.76043198403506e-15, -36.7282245445858, 23.9525572427489
cycle= 15 E= -50.807074927241  delta_E= -1.58e-05  |g|= 0.0141  |ddm|= 0.0574
    CPU time for cycle= 15      1.29 sec, wall time      0.11 sec
HOMO = -9.8762081545  LUMO = 1.08058703704
     k-point                  mo_energy
   0 ( 0.000  0.000  0.000)   [-10.76808212  -9.88254207  -9.88254207  -9.87620815] [1.08058704 1.08425652 1.08425652 1.37911592 1.6499959  1.85209223
 1.85209223 2.24150526 2.2419473  2.2419473  2.72800318 2.72800319
 2.728066   3.41864247 3.64019606 3.64067737 3.64067737 3.71072682
 3.71072682 4.7713038  4.77225921 4.77225921]
   1 ( 0.945 -0.000 -0.000)   [-10.76205846  -9.91006231  -9.89026756  -9.89026756] [1.09509959 1.09509959 1.09788799 1.38563599 1.64634431 1.84337416
 1.84337416 2.25810753 2.27877514 2.27877514 2.71863276 2.71863276
 2.75024243 3.30134857 3.63800166 3.63800166 3.70181213 3.70181213
 3.76345326 4.76310293 4.76310293 4.90111977]
Ewald components = 2.3840572324607e-42, -1.14020834591461, 0.905546168994174
    CPU time for vj and vk      0.64 sec, wall time      0.05 sec
E1 = (4.799569554214739+4.3738070890780856e-16j)  E_coul = (-42.830995693346864-5.250097231956907e-14j)
Ewald components = 1.76043198403506e-15, -36.7282245445858, 23.9525572427489
cycle= 16 E= -50.807093440969  delta_E= -1.85e-05  |g|= 0.00523  |ddm|= 0.163
    CPU time for cycle= 16      0.87 sec, wall time      0.07 sec
HOMO = -9.87631464511  LUMO = 1.08060364692
     k-point                  mo_energy
   0 ( 0.000  0.000  0.000)   [-10.7680858   -9.88257066  -9.88257066  -9.87631465] [1.08060365 1.08425321 1.08425321 1.37916769 1.64999703 1.85208682
 1.85208682 2.24149277 2.24194741 2.24194741 2.72798799 2.72798799
 2.72804731 3.41864441 3.64019729 3.64067603 3.64067603 3.71071981
 3.71071981 4.77129292 4.77225194 4.77225194]
   1 ( 0.945 -0.000 -0.000)   [-10.76205953  -9.91019314  -9.89030182  -9.89030182] [1.09509793 1.09509793 1.0979153  1.38570197 1.64634572 1.84336929
 1.84336929 2.25810141 2.27878127 2.27878127 2.71861628 2.71861628
 2.7502197  3.30134918 3.63799718 3.63799719 3.70180526 3.70180526
 3.76345162 4.76309527 4.76309527 4.90110523]
Ewald components = 2.3840572324607e-42, -1.14020834591461, 0.905546168994174
    CPU time for vj and vk      0.89 sec, wall time      0.07 sec
E1 = (4.799673066377006+4.382955044908432e-16j)  E_coul = (-42.831100164760116-5.1618323330948623e-14j)
Ewald components = 1.76043198403506e-15, -36.7282245445858, 23.9525572427489
cycle= 17 E= -50.80709440022  delta_E= -9.59e-07  |g|= 0.005  |ddm|= 0.00434
    CPU time for cycle= 17      1.12 sec, wall time      0.09 sec
HOMO = -9.87645479913  LUMO = 1.08061725224
     k-point                  mo_energy
   0 ( 0.000  0.000  0.000)   [-10.7680988   -9.88260728  -9.88260728  -9.8764548 ] [1.08061725 1.0842427  1.0842427  1.37922231 1.65000312 1.85207818
 1.85207818 2.24148135 2.24193819 2.24193819 2.72796469 2.72796469
 2.72802492 3.41865179 3.6401954  3.64067287 3.64067287 3.71070565
 3.71070565 4.77127966 4.7722385  4.7722385 ]
   1 ( 0.945 -0.000 -0.000)   [-10.76206945  -9.91036847  -9.89034816  -9.89034816] [1.09509676 1.09509676 1.09796576 1.38575504 1.6463507  1.84336185
 1.84336185 2.25809433 2.27877393 2.27877393 2.71859151 2.71859151
 2.75019345 3.30135571 3.63799053 3.63799053 3.70179107 3.70179107
 3.76344975 4.76308151 4.76308151 4.90108669]
Ewald components = 2.3840572324607e-42, -1.14020834591461, 0.905546168994174
    CPU time for vj and vk      0.87 sec, wall time      0.07 sec
E1 = (4.799815457628055+4.348125050117335e-16j)  E_coul = (-42.83124313720892-5.1497651629150987e-14j)
Ewald components = 1.76043198403506e-15, -36.7282245445858, 23.9525572427489
cycle= 18 E= -50.8070949814178  delta_E= -5.81e-07  |g|= 0.00481  |ddm|= 0.0142
    CPU time for cycle= 18      1.10 sec, wall time      0.09 sec
HOMO = -9.87665987321  LUMO = 1.08054924016
     k-point                  mo_energy
   0 ( 0.000  0.000  0.000)   [-10.76815453  -9.88271003  -9.88271003  -9.87665987] [1.08054924 1.08416656 1.08416656 1.37921392 1.65002897 1.85204246
 1.85204246 2.24142863 2.2418917  2.2418917  2.72787119 2.72787119
 2.72793748 3.41868141 3.64017911 3.64065429 3.64065429 3.71064744
 3.71064744 4.77122329 4.77218393 4.77218393]
   1 ( 0.945 -0.000 -0.000)   [-10.76211248  -9.9107246   -9.89048845  -9.89048845] [1.09506079 1.09506079 1.09803287 1.38576515 1.64637388 1.84332953
 1.84332953 2.25805767 2.27873384 2.27873384 2.71848955 2.71848955
 2.75008306 3.30138498 3.63795808 3.63795808 3.70173297 3.70173297
 3.76343597 4.76302528 4.76302528 4.90100771]
Ewald components = 2.3840572324607e-42, -1.14020834591461, 0.905546168994174
    CPU time for vj and vk      1.00 sec, wall time      0.09 sec
E1 = (4.800407796129849+4.1553403513222564e-16j)  E_coul = (-42.83183764139285-5.263216078243982e-14j)
Ewald components = 1.76043198403506e-15, -36.7282245445858, 23.9525572427489
cycle= 19 E= -50.8070971470999  delta_E= -2.17e-06  |g|= 0.00522  |ddm|= 0.0481
    CPU time for cycle= 19      1.22 sec, wall time      0.10 sec
HOMO = -9.87637742956  LUMO = 1.08046910493
     k-point                  mo_energy
   0 ( 0.000  0.000  0.000)   [-10.76814468  -9.88265294  -9.88265294  -9.87637743] [1.0804691  1.08415122 1.08415122 1.3790764  1.65002833 1.85204666
 1.85204666 2.2414295  2.24189089 2.24189089 2.72789151 2.72789151
 2.72795861 3.4186796  3.64017524 3.64065362 3.64065362 3.71065557
 3.71065557 4.77122852 4.77219322 4.77219322]
   1 ( 0.945 -0.000 -0.000)   [-10.7621006   -9.91048856  -9.89044112  -9.89044112] [1.09505987 1.09505987 1.09798191 1.38564585 1.64637746 1.84333378
 1.84333378 2.25805922 2.27873338 2.27873338 2.71850569 2.71850569
 2.75009077 3.3013845  3.63795628 3.63795628 3.70174013 3.70174013
 3.76343828 4.76303385 4.76303385 4.90101085]
Ewald components = 2.3840572324607e-42, -1.14020834591461, 0.905546168994174
    CPU time for vj and vk      1.07 sec, wall time      0.09 sec
E1 = (4.800322988393706+4.225339154083352e-16j)  E_coul = (-42.831754577093854-5.14554761646413e-14j)
Ewald components = 1.76043198403506e-15, -36.7282245445858, 23.9525572427489
cycle= 20 E= -50.8070988905371  delta_E= -1.74e-06  |g|= 0.00463  |ddm|= 0.00968
    CPU time for cycle= 20      1.30 sec, wall time      0.11 sec
HOMO = -9.87634139104  LUMO = 1.08045887907
     k-point                  mo_energy
   0 ( 0.000  0.000  0.000)   [-10.76814218  -9.88264451  -9.88264451  -9.87634139] [1.08045888 1.08415054 1.08415054 1.37906891 1.6500275  1.85204774
 1.85204774 2.24143279 2.24189454 2.24189454 2.72789872 2.72789872
 2.72796651 3.4186787  3.6401766  3.64065622 3.64065622 3.71065878
 3.71065878 4.77122917 4.77219723 4.77219723]
   1 ( 0.945 -0.000 -0.000)   [-10.76209535  -9.9105025   -9.89044098  -9.89044098] [1.09506891 1.09506891 1.09799528 1.38566463 1.64638047 1.84333487
 1.84333487 2.25806379 2.27873954 2.27873954 2.7185096  2.7185096
 2.75008782 3.30138676 3.63795754 3.63795754 3.70174276 3.70174276
 3.76344163 4.76303719 4.76303719 4.90100877]
Ewald components = 2.3840572324607e-42, -1.14020834591461, 0.905546168994174
    CPU time for vj and vk      1.05 sec, wall time      0.09 sec
E1 = (4.800305726937566+4.260236911510229e-16j)  E_coul = (-42.831738787743895-5.097463250114398e-14j)
Ewald components = 1.76043198403506e-15, -36.7282245445858, 23.9525572427489
cycle= 21 E= -50.8071003626432  delta_E= -1.47e-06  |g|= 0.00426  |ddm|= 0.011
    CPU time for cycle= 21      1.28 sec, wall time      0.11 sec
HOMO = -9.87613563388  LUMO = 1.0805292988
     k-point                  mo_energy
   0 ( 0.000  0.000  0.000)   [-10.76806563  -9.88250352  -9.88250352  -9.87613563] [1.0805293  1.08423899 1.08423899 1.37919613 1.64999572 1.85209053
 1.85209053 2.24150959 2.24196612 2.24196612 2.72804681 2.72804681
 2.72811533 3.41864789 3.64021002 3.640698   3.640698   3.71073663
 3.71073663 4.77129283 4.77227882 4.77227882]
   1 ( 0.945 -0.000 -0.000)   [-10.7620085   -9.91048524  -9.89032276  -9.89032276] [1.09518488 1.09518488 1.09810862 1.38593346 1.64637696 1.84337601
 1.84337601 2.25813625 2.27882272 2.27882272 2.71864381 2.71864381
 2.75018563 3.30137724 3.63800322 3.63800322 3.70181671 3.70181671
 3.76348531 4.76311601 4.76311601 4.90107322]
Ewald components = 2.3840572324607e-42, -1.14020834591461, 0.905546168994174
    CPU time for vj and vk      0.90 sec, wall time      0.08 sec
E1 = (4.799571418686126+4.565033247250216e-16j)  E_coul = (-42.831009334203586-5.02401939495023e-14j)
Ewald components = 1.76043198403506e-15, -36.7282245445858, 23.9525572427489
cycle= 22 E= -50.8071052173544  delta_E= -4.85e-06  |g|= 0.004  |ddm|= 0.107
    CPU time for cycle= 22      1.13 sec, wall time      0.09 sec
HOMO = -9.87607284859  LUMO = 1.08053994097
     k-point                  mo_energy
   0 ( 0.000  0.000  0.000)   [-10.76805445  -9.88247905  -9.88247905  -9.87607285] [1.08053994 1.08425304 1.08425304 1.37919362 1.64999089 1.85209706
 1.85209706 2.24152145 2.24197683 2.24197683 2.72807483 2.72807483
 2.72814514 3.4186455  3.64021498 3.64070625 3.64070625 3.71074911
 3.71074911 4.77130089 4.77229386 4.77229386]
   1 ( 0.945 -0.000 -0.000)   [-10.76198858  -9.9105224   -9.89031213  -9.89031213] [1.09521511 1.09521511 1.09815029 1.38599866 1.646382   1.84338206
 1.84338206 2.25814813 2.27883912 2.27883912 2.71866534 2.71866534
 2.75019332 3.30138262 3.63801009 3.63801009 3.70182789 3.70182789
 3.76349394 4.76312966 4.76312966 4.90107525]
Ewald components = 2.3840572324607e-42, -1.14020834591461, 0.905546168994174
    CPU time for vj and vk      0.85 sec, wall time      0.07 sec
E1 = (4.7994673413862+4.615380885635012e-16j)  E_coul = (-42.8309061795228-5.037181609324204e-14j)
Ewald components = 1.76043198403506e-15, -36.7282245445858, 23.9525572427489
cycle= 23 E= -50.8071061399735  delta_E= -9.23e-07  |g|= 0.00433  |ddm|= 0.04
    CPU time for cycle= 23      1.10 sec, wall time      0.09 sec
HOMO = -9.8760901256  LUMO = 1.08050470395
     k-point                  mo_energy
   0 ( 0.000  0.000  0.000)   [-10.76808418  -9.88252544  -9.88252544  -9.87609013] [1.0805047  1.08421715 1.08421715 1.37910896 1.65000329 1.85208063
 1.85208063 2.24149244 2.24195048 2.24195048 2.72802641 2.72802641
 2.72809728 3.41865958 3.64020202 3.64069301 3.64069301 3.71072058
 3.71072058 4.77127443 4.77226651 4.77226651]
   1 ( 0.945 -0.000 -0.000)   [-10.76201258  -9.91056525  -9.89036483  -9.89036483] [1.09518597 1.09518597 1.09813666 1.38591854 1.6463911  1.84336608
 1.84336608 2.25812201 2.27881353 2.27881353 2.71861637 2.71861637
 2.75014623 3.30139394 3.63799257 3.63799257 3.70179977 3.70179977
 3.76348017 4.76310208 4.76310208 4.90104066]
Ewald components = 2.3840572324607e-42, -1.14020834591461, 0.905546168994174
    CPU time for vj and vk      0.92 sec, wall time      0.08 sec
E1 = (4.799752237542514+4.617074951529521e-16j)  E_coul = (-42.831191998676616-4.9889020865834244e-14j)
Ewald components = 1.76043198403506e-15, -36.7282245445858, 23.9525572427489
cycle= 24 E= -50.807107062971  delta_E= -9.23e-07  |g|= 0.00285  |ddm|= 0.0164
    CPU time for cycle= 24      1.15 sec, wall time      0.10 sec
HOMO = -9.87610189786  LUMO = 1.08048584655
     k-point                  mo_energy
   0 ( 0.000  0.000  0.000)   [-10.76809482  -9.88254084  -9.88254084  -9.8761019 ] [1.08048585 1.08420279 1.08420279 1.37909242 1.65000749 1.85207511
 1.85207511 2.24148308 2.24194244 2.24194244 2.72800975 2.72800975
 2.72808045 3.41866421 3.64019818 3.64068907 3.64068907 3.71071074
 3.71071074 4.77126558 4.77225718 4.77225718]
   1 ( 0.945 -0.000 -0.000)   [-10.76202135  -9.91058626  -9.89038196  -9.89038196] [1.0951734  1.0951734  1.09812266 1.38590568 1.6463943  1.84336069
 1.84336069 2.2581144  2.2788058  2.2788058  2.71859949 2.71859949
 2.75012957 3.30139803 3.63798723 3.63798723 3.70179017 3.70179017
 3.76347578 4.76309267 4.76309267 4.90102915]
Ewald components = 2.3840572324607e-42, -1.14020834591461, 0.905546168994174
    CPU time for vj and vk      0.89 sec, wall time      0.08 sec
E1 = (4.799849802366733+4.521190821900334e-16j)  E_coul = (-42.83128981517101-5.035902250760671e-14j)
Ewald components = 1.76043198403506e-15, -36.7282245445858, 23.9525572427489
cycle= 25 E= -50.8071073146412  delta_E= -2.52e-07  |g|= 0.00238  |ddm|= 0.0055
    CPU time for cycle= 25      1.13 sec, wall time      0.09 sec
HOMO = -9.87612330941  LUMO = 1.08046476435
     k-point                  mo_energy
   0 ( 0.000  0.000  0.000)   [-10.76810994  -9.88256478  -9.88256478  -9.87612331] [1.08046476 1.08418408 1.08418408 1.37906616 1.65001323 1.85206715
 1.85206715 2.24146966 2.24193068 2.24193068 2.72798521 2.72798521
 2.72805587 3.41867055 3.64019251 3.64068313 3.64068313 3.71069675
 3.71069675 4.77125277 4.77224371 4.77224371]
   1 ( 0.945 -0.000 -0.000)   [-10.76203459  -9.91061636  -9.89040727  -9.89040727] [1.09515593 1.09515593 1.0981042  1.38588428 1.6463985  1.84335283
 1.84335283 2.25810308 2.27879431 2.27879431 2.71857492 2.71857492
 2.75010625 3.30140361 3.63797951 3.63797951 3.70177659 3.70177659
 3.76346902 4.76307914 4.76307914 4.9010132 ]
Ewald components = 2.3840572324607e-42, -1.14020834591461, 0.905546168994174
    CPU time for vj and vk      0.80 sec, wall time      0.07 sec
E1 = (4.799991674047158+4.499913354265306e-16j)  E_coul = (-42.83143196051755-4.971142854998112e-14j)
Ewald components = 1.76043198403506e-15, -36.7282245445858, 23.9525572427489
cycle= 26 E= -50.8071075883073  delta_E= -2.74e-07  |g|= 0.00183  |ddm|= 0.00834
    CPU time for cycle= 26      1.03 sec, wall time      0.09 sec
HOMO = -9.87612687409  LUMO = 1.08045402186
     k-point                  mo_energy
   0 ( 0.000  0.000  0.000)   [-10.76812317  -9.88258633  -9.88258633  -9.87612687] [1.08045402 1.08417141 1.08417141 1.37903227 1.65001691 1.85206128
 1.85206128 2.24145915 2.24192183 2.24192183 2.72796806 2.72796806
 2.72803976 3.41867586 3.6401876  3.64067963 3.64067963 3.71068603
 3.71068603 4.77123982 4.77223501 4.77223501]
   1 ( 0.945 -0.000 -0.000)   [-10.76204222  -9.91067925  -9.89043499  -9.89043499] [1.09514997 1.09514997 1.09809605 1.38590374 1.64640665 1.84334646
 1.84334646 2.25809466 2.27878915 2.27878915 2.71855432 2.71855432
 2.75008045 3.30141372 3.63797371 3.63797371 3.70176603 3.70176603
 3.76346343 4.76306966 4.76306966 4.90099477]
Ewald components = 2.3840572324607e-42, -1.14020834591461, 0.905546168994174
    CPU time for vj and vk      0.84 sec, wall time      0.07 sec
E1 = (4.800118924287664+4.566659550508945e-16j)  E_coul = (-42.831559933705286-5.0556780983868066e-14j)
Ewald components = 1.76043198403506e-15, -36.7282245445858, 23.9525572427489
cycle= 27 E= -50.8071083112545  delta_E= -7.23e-07  |g|= 0.0012  |ddm|= 0.0258
    CPU time for cycle= 27      1.07 sec, wall time      0.09 sec
HOMO = -9.87613381426  LUMO = 1.08042903336
     k-point                  mo_energy
   0 ( 0.000  0.000  0.000)   [-10.76814551  -9.88262087  -9.88262087  -9.87613381] [1.08042903 1.08414654 1.08414654 1.37897216 1.6500242  1.85205031
 1.85205031 2.24144034 2.24190545 2.24190545 2.72793484 2.72793484
 2.72800711 3.4186845  3.64017922 3.64067191 3.64067191 3.71066696
 3.71066696 4.77122026 4.7722175  4.7722175 ]
   1 ( 0.945 -0.000 -0.000)   [-10.76205937  -9.9107296   -9.89047451  -9.89047451] [1.09513023 1.09513023 1.09807438 1.38588111 1.64641534 1.84333524
 1.84333524 2.25807832 2.2787753  2.2787753  2.718519   2.718519
 2.75004326 3.30142462 3.63796305 3.63796305 3.7017474  3.7017474
 3.7634535  4.76305161 4.76305161 4.90096907]
Ewald components = 2.3840572324607e-42, -1.14020834591461, 0.905546168994174
    CPU time for vj and vk      0.89 sec, wall time      0.07 sec
E1 = (4.800329034706464+4.568963480125476e-16j)  E_coul = (-42.83177031543145-4.989368293517593e-14j)
Ewald components = 1.76043198403506e-15, -36.7282245445858, 23.9525572427489
cycle= 28 E= -50.8071085825619  delta_E= -2.71e-07  |g|= 0.000726  |ddm|= 0.0184
    CPU time for cycle= 28      1.12 sec, wall time      0.09 sec
HOMO = -9.87610369392  LUMO = 1.08043398857
     k-point                  mo_energy
   0 ( 0.000  0.000  0.000)   [-10.7681416   -9.88261201  -9.88261201  -9.87610369] [1.08043399 1.08415227 1.08415227 1.37896212 1.65002172 1.85205296
 1.85205296 2.24144462 2.24190957 2.24190957 2.72794295 2.72794295
 2.72801508 3.41868175 3.64018078 3.64067412 3.64067412 3.7106723
 3.7106723  4.77122439 4.77222268 4.77222268]
   1 ( 0.945 -0.000 -0.000)   [-10.76205476  -9.9107089   -9.89046665  -9.89046665] [1.09513699 1.09513699 1.09807883 1.38588055 1.64641463 1.84333772
 1.84333772 2.25808193 2.27878024 2.27878024 2.71852647 2.71852647
 2.75004884 3.30142316 3.6379657  3.6379657  3.70175245 3.70175245
 3.76345544 4.76305663 4.76305663 4.90097329]
Ewald components = 2.3840572324607e-42, -1.14020834591461, 0.905546168994174
    CPU time for vj and vk      0.89 sec, wall time      0.07 sec
E1 = (4.800289695487716+4.543688016979408e-16j)  E_coul = (-42.83173102616417-5.05095097691477e-14j)
Ewald components = 1.76043198403506e-15, -36.7282245445858, 23.9525572427489
cycle= 29 E= -50.8071086325134  delta_E= -5e-08  |g|= 0.000494  |ddm|= 0.00793
    CPU time for cycle= 29      1.12 sec, wall time      0.09 sec
HOMO = -9.87610007509  LUMO = 1.08043769536
     k-point                  mo_energy
   0 ( 0.000  0.000  0.000)   [-10.76814092  -9.88260991  -9.88260991  -9.87610008] [1.0804377  1.08415525 1.08415525 1.37896473 1.65002049 1.85205395
 1.85205395 2.24144625 2.24191146 2.24191146 2.72794582 2.72794582
 2.72801784 3.41868029 3.64018139 3.6406752  3.6406752  3.71067469
 3.71067469 4.77122581 4.77222498 4.77222498]
   1 ( 0.945 -0.000 -0.000)   [-10.76205297  -9.91071542  -9.89046579  -9.89046579] [1.09514112 1.09514112 1.09808156 1.38589326 1.64641478 1.8433386
 1.8433386  2.25808364 2.27878299 2.27878299 2.71852874 2.71852874
 2.75004969 3.30142287 3.63796686 3.63796686 3.70175464 3.70175464
 3.76345608 4.76305875 4.76305875 4.9009741 ]
Ewald components = 2.3840572324607e-42, -1.14020834591461, 0.905546168994174
    CPU time for vj and vk      0.91 sec, wall time      0.08 sec
E1 = (4.8002795451524465+4.580889704022817e-16j)  E_coul = (-42.8317209034192-5.016896186677e-14j)
Ewald components = 1.76043198403506e-15, -36.7282245445858, 23.9525572427489
cycle= 30 E= -50.8071086601037  delta_E= -2.76e-08  |g|= 0.000372  |ddm|= 0.00705
    CPU time for cycle= 30      1.14 sec, wall time      0.09 sec
HOMO = -9.87608685532  LUMO = 1.08044475194
     k-point                  mo_energy
   0 ( 0.000  0.000  0.000)   [-10.768138    -9.88260284  -9.88260284  -9.87608686] [1.08044475 1.08416194 1.08416194 1.37896875 1.65001786 1.85205648
 1.85205648 2.24145044 2.24191583 2.24191583 2.7279534  2.7279534
 2.72802507 3.41867715 3.64018301 3.64067754 3.64067754 3.71068026
 3.71068026 4.77122993 4.77223023 4.77223023]
   1 ( 0.945 -0.000 -0.000)   [-10.76204863  -9.91071419  -9.8904603   -9.8904603 ] [1.09514924 1.09514924 1.09808702 1.38590964 1.64641419 1.84334099
 1.84334099 2.25808759 2.27878849 2.27878849 2.71853557 2.71853557
 2.75005432 3.30142128 3.63796961 3.63796961 3.70175984 3.70175984
 3.76345793 4.76306377 4.76306378 4.90097776]
Ewald components = 2.3840572324607e-42, -1.14020834591461, 0.905546168994174
    CPU time for vj and vk      1.07 sec, wall time      0.09 sec
E1 = (4.80024552817549+4.594374468543105e-16j)  E_coul = (-42.8316868904-4.976010922752572e-14j)
Ewald components = 1.76043198403506e-15, -36.7282245445858, 23.9525572427489
cycle= 31 E= -50.8071086640614  delta_E= -3.96e-09  |g|= 0.000407  |ddm|= 0.00994
    CPU time for cycle= 31      1.31 sec, wall time      0.11 sec
HOMO = -9.87608877407  LUMO = 1.08044384116
     k-point                  mo_energy
   0 ( 0.000  0.000  0.000)   [-10.76813946  -9.88260496  -9.88260496  -9.87608877] [1.08044384 1.08416066 1.08416066 1.37896598 1.65001823 1.85205586
 1.85205586 2.24144934 2.24191488 2.24191488 2.72795127 2.72795127
 2.72802284 3.41867751 3.64018249 3.64067702 3.64067702 3.71067924
 3.71067924 4.77122895 4.77222919 4.77222919]
   1 ( 0.945 -0.000 -0.000)   [-10.76204979  -9.91071664  -9.89046253  -9.89046253] [1.095148   1.095148   1.09808529 1.38590803 1.6464145  1.84334036
 1.84334036 2.25808659 2.27878763 2.27878763 2.71853345 2.71853345
 2.75005227 3.30142163 3.63796898 3.63796898 3.70175885 3.70175885
 3.76345724 4.76306272 4.76306272 4.90097645]
Ewald components = 2.3840572324607e-42, -1.14020834591461, 0.905546168994174
    CPU time for vj and vk      0.92 sec, wall time      0.08 sec
E1 = (4.800258104422048+4.597152736610099e-16j)  E_coul = (-42.83169947206798-4.8984579413546836e-14j)
Ewald components = 1.76043198403506e-15, -36.7282245445858, 23.9525572427489
cycle= 32 E= -50.8071086694829  delta_E= -5.42e-09  |g|= 0.000331  |ddm|= 0.00102
    CPU time for cycle= 32      1.15 sec, wall time      0.10 sec
HOMO = -9.87609906304  LUMO = 1.08043774732
     k-point                  mo_energy
   0 ( 0.000  0.000  0.000)   [-10.76814522  -9.8826144   -9.8826144   -9.87609906] [1.08043775 1.08415393 1.08415393 1.37895531 1.6500204  1.85205284
 1.85205284 2.24144416 2.2419102  2.2419102  2.72794163 2.72794163
 2.72801304 3.41867981 3.64018024 3.64067451 3.64067451 3.71067386
 3.71067386 4.77122416 4.77222388 4.77222388]
   1 ( 0.945 -0.000 -0.000)   [-10.76205511  -9.91072527  -9.89047205  -9.89047205] [1.09514121 1.09514121 1.09807824 1.38589647 1.64641577 1.84333739
 1.84333739 2.25808194 2.27878285 2.27878285 2.71852403 2.71852403
 2.7500438  3.30142335 3.63796593 3.63796593 3.70175368 3.70175368
 3.76345444 4.76305744 4.76305744 4.9009707 ]
Ewald components = 2.3840572324607e-42, -1.14020834591461, 0.905546168994174
    CPU time for vj and vk      1.05 sec, wall time      0.09 sec
E1 = (4.800311795982415+4.59139291256877e-16j)  E_coul = (-42.831753173162596-4.966350681395726e-14j)
Ewald components = 1.76043198403506e-15, -36.7282245445858, 23.9525572427489
cycle= 33 E= -50.8071086790171  delta_E= -9.53e-09  |g|= 0.000192  |ddm|= 0.00377
    CPU time for cycle= 33      1.28 sec, wall time      0.11 sec
HOMO = -9.87609896664  LUMO = 1.08043841425
     k-point                  mo_energy
   0 ( 0.000  0.000  0.000)   [-10.768145    -9.882614    -9.882614    -9.87609897] [1.08043841 1.08415431 1.08415431 1.37895569 1.65002024 1.85205298
 1.85205298 2.24144438 2.2419104  2.2419104  2.72794196 2.72794196
 2.72801333 3.4186796  3.64018033 3.64067459 3.64067459 3.71067416
 3.71067416 4.77122439 4.77222413 4.77222413]
   1 ( 0.945 -0.000 -0.000)   [-10.76205502  -9.91072435  -9.8904716   -9.8904716 ] [1.09514149 1.09514149 1.09807815 1.38589673 1.64641563 1.84333753
 1.84333753 2.25808213 2.27878304 2.27878304 2.71852437 2.71852437
 2.75004418 3.30142317 3.63796608 3.63796608 3.70175397 3.70175397
 3.7634545  4.76305769 4.76305769 4.90097108]
Ewald components = 2.3840572324607e-42, -1.14020834591461, 0.905546168994174
    CPU time for vj and vk      1.09 sec, wall time      0.09 sec
E1 = (4.80030980247245+4.59925337831929e-16j)  E_coul = (-42.83175118117638-4.9720535848229996e-14j)
Ewald components = 1.76043198403506e-15, -36.7282245445858, 23.9525572427489
Extra cycle  E= -50.8071086805408  delta_E= -1.52e-09  |g|= 0.000179  |ddm|= 0.000164
    CPU time for scf_cycle    452.73 sec, wall time     40.93 sec
    CPU time for SCF    452.76 sec, wall time     40.94 sec
converged SCF energy = -50.8071086805408
Using Python 2.x
Wavefunction successfully saved to QMCPACK HDF5 Format
Use: "convert4qmc -pyscf  scf.h5" to generate QMCPACK input files
