Discarded 6 diffused primitive functions, 0 contracted functions
#INFO: **** input file is /home/j1k/repositories/qmcpack_workshop_2019/day2_nexus/pyscf/04_pyscf_diamond_dft_qmc/runs/diamond/scf/scf.py ****
#!/usr/bin/env python

from pyscf.pbc import df, scf


### generated system text ###
from numpy import array
from pyscf.pbc import gto as gto_loc
cell = gto_loc.Cell()
cell.a             = '''
                     1.78500000   1.78500000   0.00000000
                     0.00000000   1.78500000   1.78500000
                     1.78500000   0.00000000   1.78500000
                     '''
cell.basis         = 'bfd-vdz'
cell.dimension     = 3
cell.ecp           = 'bfd'
cell.unit          = 'A'
cell.atom          = '''
                     C    0.00000000   0.00000000   0.00000000
                     C    0.89250000   0.89250000   0.89250000
                     '''
cell.drop_exponent = 0.1
cell.verbose       = 5
cell.charge        = 0
cell.spin          = 0
cell.build()
kpts = array([
    [0.0, 0.0, 0.0],
    [0.8799979421820149, 0.8799979421820149, -0.8799979421820149]])
### end generated system text ###



gdf = df.GDF(cell,kpts)
gdf.auxbasis = 'weigend'
gdf.build()

mf = scf.KRKS(cell,kpts).density_fit()
mf.xc      ='b3lyp'
mf.tol     = 1e-10
mf.exxdiv  = 'ewald'
mf.with_df = gdf
mf.kernel()

### generated conversion text ###
from PyscfToQmcpack import savetoqmcpack
savetoqmcpack(cell,mf,'scf',kpts)
### end generated conversion text ###

#INFO: ******************** input file end ********************


System: ('Linux', 'viribus', '4.15.0-48-generic', '#51-Ubuntu SMP Wed Apr 3 08:28:49 UTC 2019', 'x86_64', 'x86_64')  Threads 16
Python 2.7.15rc1 (default, Nov 12 2018, 14:31:15) 
[GCC 7.3.0]
numpy 1.15.4  scipy 0.19.1
Date: Wed May  8 15:55:56 2019
PySCF version 1.5.4
PySCF path  /home/j1k/repositories/pyscf/pyscf
GIT HEAD      ref: refs/heads/master
GIT master branch  b10d0ee541f783312ac791d36702ff7a4bc1c637

[CONFIG] conf_file None
[INPUT] verbose = 5
[INPUT] max_memory = 4000 
[INPUT] num. atoms = 2
[INPUT] num. electrons = 8
[INPUT] charge = 0
[INPUT] spin (= nelec alpha-beta = 2S) = 0
[INPUT] symmetry False subgroup None
[INPUT] Mole.unit = A
[INPUT]  1 C      0.000000000000   0.000000000000   0.000000000000 AA    0.000000000000   0.000000000000   0.000000000000 Bohr
[INPUT]  2 C      0.892500000000   0.892500000000   0.892500000000 AA    1.686580566174   1.686580566174   1.686580566174 Bohr
[INPUT] ---------------- BASIS SET ---------------- 
[INPUT] l, kappa, [nprim/nctr], expnt,             c_1 c_2 ...
[INPUT] C
[INPUT] 0    0    [8    /1   ]  13.073594         -0.000705
                                6.541187          0.015176
                                3.272791          -0.121499
                                1.637494          -0.033512
                                0.819297          0.180113
                                0.409924          0.380369
                                0.2051            0.397529
                                0.102619          0.169852
[INPUT] 0    0    [1    /1   ]  0.127852             1
[INPUT] 1    0    [7    /1   ]  7.480076          0.021931
                                3.741035          0.054425
                                1.871016          0.112024
                                0.935757          0.210979
                                0.468003          0.289868
                                0.234064          0.302667
                                0.117063          0.191634
[INPUT] 1    0    [1    /1   ]  0.149161             1
[INPUT] 2    0    [1    /1   ]  0.561161             1

Ewald components = 1.76043198403506e-15, -36.7282245445858, 23.9525572427489
nuclear repulsion = -12.7756673018369
number of shells = 10
number of NR pGTOs = 76
number of NR cGTOs = 26
basis = bfd-vdz
ecp = bfd
CPU time:         0.79
lattice vectors  a1 [3.373161132, 3.373161132, 0.000000000]
                 a2 [0.000000000, 3.373161132, 3.373161132]
                 a3 [3.373161132, 0.000000000, 3.373161132]
dimension = 3
Cell volume = 76.7611
exp_to_discard = 0.1
rcut = 19.243077142883383 (nimgs = [5 5 5])
lattice sum = 911 cells
precision = 1e-08
pseudo = None
ke_cutoff = 210.04046224479163
    = [26 26 26] mesh (17576 PWs)
ew_eta = 2.01651
ew_cut = 3.4228673507667566 (nimgs = [1 1 1])


******** <class 'pyscf.pbc.df.df.GDF'> flags ********
mesh = [7 7 7] (343 PWs)
auxbasis = weigend
eta = 0.2
exp_to_discard = 0.1
_cderi_to_save = /home/j1k/repositories/qmcpack_workshop_2019/day2_nexus/pyscf/04_pyscf_diamond_dft_qmc/runs/diamond/scf/tmpjd8wZn
len(kpts) = 2
num shells = 30, num cGTOs = 98
Drop 0 primitive fitting functions
make aux basis, num shells = 30, num cGTOs = 98
auxcell.rcut 12.824463399809424
Num uniq kpts 2


******** <class 'pyscf.pbc.dft.krks.KRKS'> flags ********
method = KRKS-KRHF-KSCF-SCF
initial guess = minao
damping factor = 0
level shift factor = 0
DIIS = <class 'pyscf.scf.diis.CDIIS'>
DIIS start cycle = 1
DIIS space = 8
SCF tol = 1e-07
SCF gradient tol = None
max. SCF cycles = 50
direct_scf = False
chkfile to save SCF result = /home/j1k/repositories/qmcpack_workshop_2019/day2_nexus/pyscf/04_pyscf_diamond_dft_qmc/runs/diamond/scf/tmpszCB8Q
max_memory 4000 MB (current use 197 MB)


******** PBC SCF flags ********
N kpts = 2
kpts = [[ 0.          0.          0.        ]
 [ 0.87999794  0.87999794 -0.87999794]]
Exchange divergence treatment (exxdiv) = ewald
Ewald components = 2.3840572324607e-42, -1.14020834591461, 0.905546168994174
    madelung (= occupied orbital energy shift) = 0.4693243538408729
    Total energy shift due to Ewald probe charge = -1/2 * Nelec*madelung/cell.vol = -1.87729741536
DF object = <pyscf.pbc.df.df.GDF object at 0x7f0c05599050>
XC functionals = b3lyp
radial grids: 
    Treutler-Ahlrichs (JCP 102, 346 (M4)) radial grids
    
becke partition: Becke, JCP, 88, 2547 (1988)
pruning grids: <function nwchem_prune at 0x7f0bd4c38758>
grids dens level: 3
symmetrized grids: False
atomic radii adjust function: <function treutler_atomic_radii_adjust at 0x7f0bd4c38668>
Set gradient conv threshold to 0.000316228
cond(S) = [62153.80803905 63252.14958731]
atom C rad-grids = 75, ang-grids = [ 50  50  50  50  50  50  50  50  50  50  50  50  50  50  50  50  50  50
  50  50  50  50  50  86  86  86  86  86  86  86  86  86  86 266 266 266
 266 266 266 266 302 302 302 302 302 302 302 302 302 302 302 302 302 302
 302 302 302 302 302 302 266 266 266 266 266 266 266 266 266 266 266 266
 266 266 266]
tot grids = 27572
cell vol = 76.7611121  sum(weights) = 77.1162614
    CPU time for setting up grids     10.59 sec, wall time      1.53 sec
nelec by numeric integration = 10.93693558430444
    CPU time for vxc      6.85 sec, wall time      0.63 sec
Ewald components = 2.3840572324607e-42, -1.14020834591461, 0.905546168994174
    CPU time for vj and vk      0.28 sec, wall time      0.04 sec
E1 = 3.5176338199086974  Ecoul = 0.8290548766961056  Exc = -42.205016706782565
Ewald components = 1.76043198403506e-15, -36.7282245445858, 23.9525572427489
init E= -50.6339953120147
    CPU time for initialize scf    423.86 sec, wall time     38.10 sec
HOMO = -0.0010986516246  LUMO = 0.35633461548
     k-point                  mo_energy
   0 ( 0.000  0.000  0.000)   [-9.20388550e+00 -1.50562798e-02 -1.25131613e-03 -1.24623472e-03] [0.35633462 0.35825008 0.35825078 0.61375319 1.31992597 1.48844485
 1.48844486 1.83240517 1.83356112 1.83356435 2.27137206 2.27158407
 2.27158615 3.08952888 3.23783238 3.23793819 3.23794223 3.27375656
 3.27375657 4.31885649 4.31891438 4.31891959]
   1 ( 0.945 -0.000 -0.000)   [-9.30602915e+00 -1.25843198e-02 -1.10368837e-03 -1.09865162e-03] [0.36142287 0.36142365 0.36439733 0.61685653 1.30686271 1.4798346
 1.47983485 1.84520364 1.86565637 1.86565924 2.26541886 2.26542071
 2.302632   2.9607507  3.23205192 3.23205456 3.26919838 3.26919927
 3.36260933 4.31096367 4.31096829 4.45458622]
nelec by numeric integration = 8.005235236388573
    CPU time for vxc      7.08 sec, wall time      0.64 sec
Ewald components = 2.3840572324607e-42, -1.14020834591461, 0.905546168994174
    CPU time for vj and vk      0.25 sec, wall time      0.03 sec
E1 = 4.742418642298406  Ecoul = 1.474042258555654  Exc = -11.857964484085507
Ewald components = 1.76043198403506e-15, -36.7282245445858, 23.9525572427489
cycle= 1 E= -18.4171708850684  delta_E= 32.2  |g|= 0.393  |ddm|= 6.91
    CPU time for cycle= 1      7.55 sec, wall time      0.69 sec
HOMO = -1.52652279226  LUMO = 0.810220192889
     k-point                  mo_energy
   0 ( 0.000  0.000  0.000)   [-2.35077081 -1.53145156 -1.53144665 -1.52652279] [0.81022019 0.81452983 0.81453069 1.09430964 1.42419379 1.58066561
 1.58066562 1.93900461 1.93900724 1.94006894 2.39368132 2.39368243
 2.39385193 3.17764878 3.32972976 3.32990347 3.32990651 3.37468408
 3.37468409 4.421615   4.42174732 4.42175061]
   1 ( 0.945 -0.000 -0.000)   [-2.34729963 -1.55234902 -1.53737309 -1.5373683 ] [0.82271383 0.82271485 0.8250114  1.09945745 1.41513046 1.57213883
 1.57213898 1.95421512 1.97196451 1.97196693 2.38632641 2.38632735
 2.42170336 3.0485161  3.32515875 3.3251609  3.36896623 3.36896672
 3.45720613 4.41345875 4.41346171 4.55693735]
nelec by numeric integration = 8.004924572764427
    CPU time for vxc      7.13 sec, wall time      0.64 sec
Ewald components = 2.3840572324607e-42, -1.14020834591461, 0.905546168994174
    CPU time for vj and vk      0.27 sec, wall time      0.04 sec
E1 = 4.73976548926142  Ecoul = 1.4787936873685394  Exc = -11.871518208318076
Ewald components = 1.76043198403506e-15, -36.7282245445858, 23.9525572427489
cycle= 2 E= -18.428626333525  delta_E= -0.0115  |g|= 0.258  |ddm|= 0.912
    CPU time for cycle= 2      7.70 sec, wall time      0.71 sec
HOMO = -1.52763170419  LUMO = 0.811275184038
     k-point                  mo_energy
   0 ( 0.000  0.000  0.000)   [-2.35113649 -1.53220393 -1.532199   -1.5276317 ] [0.81127518 0.81508655 0.81508745 1.09493298 1.42566139 1.5810639
 1.5810639  1.93961896 1.93962161 1.94050084 2.39363039 2.39363145
 2.39376357 3.17899655 3.33027855 3.33043331 3.33043636 3.37493446
 3.37493447 4.4220518  4.42217751 4.42218077]
   1 ( 0.945 -0.000 -0.000)   [-2.34765981 -1.55357311 -1.53823085 -1.53822605] [0.82328795 0.82328901 0.82613735 1.09988913 1.41650032 1.57250585
 1.572506   1.95489331 1.97269746 1.9726999  2.38630073 2.38630163
 2.42174546 3.04969005 3.32562914 3.32563131 3.36924051 3.369241
 3.45786289 4.41388598 4.41388891 4.55737198]
nelec by numeric integration = 8.004817191617187
    CPU time for vxc      7.16 sec, wall time      0.65 sec
Ewald components = 2.3840572324607e-42, -1.14020834591461, 0.905546168994174
    CPU time for vj and vk      0.29 sec, wall time      0.04 sec
E1 = 4.7344500556880496  Ecoul = 1.4795722937459623  Exc = -11.87135408031748
Ewald components = 1.76043198403506e-15, -36.7282245445858, 23.9525572427489
cycle= 3 E= -18.4329990327204  delta_E= -0.00437  |g|= 0.137  |ddm|= 0.36
    CPU time for cycle= 3      7.68 sec, wall time      0.70 sec
HOMO = -1.5288644102  LUMO = 0.811992935463
     k-point                  mo_energy
   0 ( 0.000  0.000  0.000)   [-2.35272403 -1.53336287 -1.53335791 -1.52886441] [0.81199294 0.81570799 0.81570895 1.09577    1.42923488 1.5812422
 1.58124221 1.94116486 1.94116754 1.94166939 2.3933468  2.39334779
 2.39340642 3.18186975 3.33134624 3.3314993  3.33150238 3.37534229
 3.3753423  4.42283274 4.42295763 4.42296082]
   1 ( 0.945 -0.000 -0.000)   [-2.34924302 -1.55498416 -1.53958713 -1.53958232] [0.82394992 0.82395107 0.82698287 1.10023712 1.4199074  1.57262757
 1.57262773 1.9566108  1.97445427 1.97445673 2.3860696  2.38607042
 2.42166138 3.05217181 3.32654388 3.32654607 3.36972532 3.36972582
 3.45916732 4.41466121 4.41466408 4.55812411]
nelec by numeric integration = 8.004597389927458
    CPU time for vxc      6.91 sec, wall time      0.63 sec
Ewald components = 2.3840572324607e-42, -1.14020834591461, 0.905546168994174
    CPU time for vj and vk      0.28 sec, wall time      0.04 sec
E1 = 4.734593316095376  Ecoul = 1.4807504771981281  Exc = -11.875610119298075
Ewald components = 1.76043198403506e-15, -36.7282245445858, 23.9525572427489
cycle= 4 E= -18.4359336278415  delta_E= -0.00293  |g|= 0.0423  |ddm|= 0.774
    CPU time for cycle= 4      7.42 sec, wall time      0.68 sec
HOMO = -1.52904925917  LUMO = 0.812076608585
     k-point                  mo_energy
   0 ( 0.000  0.000  0.000)   [-2.35258243 -1.5333943  -1.53338935 -1.52904926] [0.81207661 0.81575555 0.81575653 1.09581329 1.42946525 1.5811422
 1.58114221 1.94115861 1.94116129 1.94159989 2.39311052 2.39311148
 2.39313061 3.18260891 3.33155837 3.33172128 3.33172435 3.37535845
 3.37535846 4.42292493 4.42305804 4.42306122]
   1 ( 0.945 -0.000 -0.000)   [-2.34912597 -1.55510587 -1.53964977 -1.53964497] [0.82401052 0.82401169 0.82710532 1.10011507 1.42015408 1.57251949
 1.57251965 1.95660977 1.97446971 1.97447218 2.38584935 2.38585016
 2.42144144 3.05280029 3.32671882 3.32672099 3.36976778 3.36976828
 3.45943844 4.41476147 4.41476432 4.5581902 ]
nelec by numeric integration = 8.00454348756114
    CPU time for vxc      6.77 sec, wall time      0.61 sec
Ewald components = 2.3840572324607e-42, -1.14020834591461, 0.905546168994174
    CPU time for vj and vk      0.25 sec, wall time      0.04 sec
E1 = 4.735289070362829  Ecoul = 1.4805465248978926  Exc = -11.8763281597887
Ewald components = 1.76043198403506e-15, -36.7282245445858, 23.9525572427489
cycle= 5 E= -18.4361598663649  delta_E= -0.000226  |g|= 0.0103  |ddm|= 0.216
    CPU time for cycle= 5      7.22 sec, wall time      0.67 sec
HOMO = -1.52881207294  LUMO = 0.811901750976
     k-point                  mo_energy
   0 ( 0.000  0.000  0.000)   [-2.3520792  -1.53316679 -1.53316185 -1.52881207] [0.81190175 0.81563721 0.81563819 1.09570245 1.42885302 1.58108983
 1.58108984 1.94078208 1.94078476 1.94123459 2.39298156 2.39298211
 2.39298278 3.18259841 3.33150434 3.33167843 3.33168149 3.37528817
 3.37528818 4.42284742 4.42298169 4.42298487]
   1 ( 0.945 -0.000 -0.000)   [-2.34863244 -1.55477117 -1.53941616 -1.53941138] [0.82389931 0.82390048 0.82694249 1.09992958 1.41957241 1.57246196
 1.57246212 1.95620613 1.97408162 1.97408408 2.38572314 2.38572396
 2.42129054 3.05278123 3.32667105 3.32667322 3.36970146 3.36970197
 3.45938544 4.41468585 4.4146887  4.55809782]
nelec by numeric integration = 8.004545179218784
    CPU time for vxc      7.20 sec, wall time      0.65 sec
Ewald components = 2.3840572324607e-42, -1.14020834591461, 0.905546168994174
    CPU time for vj and vk      0.24 sec, wall time      0.03 sec
E1 = 4.735564787941352  Ecoul = 1.4801434122485049  Exc = -11.876213531885721
Ewald components = 1.76043198403506e-15, -36.7282245445858, 23.9525572427489
cycle= 6 E= -18.4361726335328  delta_E= -1.28e-05  |g|= 0.00757  |ddm|= 0.0563
    CPU time for cycle= 6      7.75 sec, wall time      0.71 sec
HOMO = -1.52879697014  LUMO = 0.811693762883
     k-point                  mo_energy
   0 ( 0.000  0.000  0.000)   [-2.35170972 -1.53305397 -1.53304905 -1.52879697] [0.81169376 0.81546911 0.81547008 1.09560455 1.42830443 1.58100079
 1.5810008  1.94041662 1.9404193  1.94086522 2.3927522  2.39278105
 2.39278204 3.18255598 3.33141158 3.33160755 3.33161059 3.37517958
 3.37517959 4.42273345 4.42286703 4.42287021]
   1 ( 0.945 -0.000 -0.000)   [-2.34826996 -1.55456067 -1.53930705 -1.53930229] [0.82375201 0.82375318 0.82677388 1.09962659 1.41903881 1.57236196
 1.57236212 1.95581003 1.97370532 1.97370779 2.38552608 2.38552691
 2.42106895 3.05272398 3.32659406 3.32659621 3.36959728 3.36959779
 3.45929449 4.4145722  4.41457506 4.5579646 ]
nelec by numeric integration = 8.004551933500302
    CPU time for vxc      7.24 sec, wall time      0.65 sec
Ewald components = 2.3840572324607e-42, -1.14020834591461, 0.905546168994174
    CPU time for vj and vk      0.28 sec, wall time      0.04 sec
E1 = 4.736089702529259  Ecoul = 1.4793560924335893  Exc = -11.875968921407814
Ewald components = 1.76043198403506e-15, -36.7282245445858, 23.9525572427489
cycle= 7 E= -18.4361904282819  delta_E= -1.78e-05  |g|= 0.0042  |ddm|= 0.12
    CPU time for cycle= 7      7.74 sec, wall time      0.71 sec
HOMO = -1.52926215418  LUMO = 0.811793701744
     k-point                  mo_energy
   0 ( 0.000  0.000  0.000)   [-2.352287   -1.53338521 -1.5333803  -1.52926215] [0.8117937  0.81551008 0.81551105 1.09574997 1.42892424 1.58102641
 1.58102642 1.9407629  1.94076558 1.94117932 2.39277941 2.39280835
 2.39280934 3.18257356 3.33142818 3.33162988 3.33163292 3.37520078
 3.37520079 4.42276278 4.42289951 4.4229027 ]
   1 ( 0.945 -0.000 -0.000)   [-2.34884159 -1.55494601 -1.5396631  -1.53965836] [0.82381144 0.82381261 0.82690967 1.09962032 1.41961671 1.57238447
 1.57238463 1.95617098 1.97406224 1.97406471 2.38555323 2.38555406
 2.42111505 3.05273387 3.32661666 3.32661881 3.36961686 3.36961737
 3.4593147  4.41460443 4.41460728 4.55800422]
nelec by numeric integration = 8.004552398526359
    CPU time for vxc      7.26 sec, wall time      0.66 sec
Ewald components = 2.3840572324607e-42, -1.14020834591461, 0.905546168994174
    CPU time for vj and vk      0.26 sec, wall time      0.04 sec
E1 = 4.736108277524561  Ecoul = 1.4792855503129458  Exc = -11.875922801465753
Ewald components = 1.76043198403506e-15, -36.7282245445858, 23.9525572427489
cycle= 8 E= -18.4361962754652  delta_E= -5.85e-06  |g|= 0.00255  |ddm|= 0.0637
    CPU time for cycle= 8      7.72 sec, wall time      0.72 sec
HOMO = -1.52914058192  LUMO = 0.811746713278
     k-point                  mo_energy
   0 ( 0.000  0.000  0.000)   [-2.35207995 -1.5332521  -1.53324719 -1.52914058] [0.81174671 0.81548643 0.8154874  1.09575476 1.42871026 1.5810199
 1.58101992 1.9406458  1.94064848 1.94106524 2.39276711 2.39280653
 2.39280752 3.18256927 3.33141883 3.33162502 3.33162807 3.37519501
 3.37519502 4.42275031 4.42289065 4.42289383]
   1 ( 0.945 -0.000 -0.000)   [-2.34864043 -1.55476245 -1.53953665 -1.53953191] [0.82379944 0.82380062 0.82687965 1.09956058 1.41941459 1.57237748
 1.57237764 1.95603941 1.97393951 1.97394199 2.3855526  2.38555342
 2.42110073 3.05272746 3.32661257 3.32661472 3.3696105  3.369611
 3.45930628 4.41459575 4.41459861 4.55799282]
nelec by numeric integration = 8.004551768703765
    CPU time for vxc      7.23 sec, wall time      0.65 sec
Ewald components = 2.3840572324607e-42, -1.14020834591461, 0.905546168994174
    CPU time for vj and vk      0.27 sec, wall time      0.04 sec
E1 = 4.73608941681187  Ecoul = 1.479309456889066  Exc = -11.875929839382088
Ewald components = 1.76043198403506e-15, -36.7282245445858, 23.9525572427489
cycle= 9 E= -18.4361982675181  delta_E= -1.99e-06  |g|= 0.0017  |ddm|= 0.0348
    CPU time for cycle= 9      7.73 sec, wall time      0.71 sec
HOMO = -1.52913701706  LUMO = 0.811733586404
     k-point                  mo_energy
   0 ( 0.000  0.000  0.000)   [-2.3520247  -1.53320228 -1.53319737 -1.52913702] [0.81173359 0.81547703 0.815478   1.09579856 1.42866365 1.58102108
 1.5810211  1.94062233 1.94062502 1.9410386  2.3927676  2.39281581
 2.39281679 3.18257288 3.3314167  3.33162743 3.33163048 3.37519727
 3.37519728 4.42275013 4.4228928  4.42289599]
   1 ( 0.945 -0.000 -0.000)   [-2.34858731 -1.55470256 -1.53949954 -1.5394948 ] [0.82380463 0.82380581 0.8268882  1.09953025 1.41936966 1.57237861
 1.57237877 1.95600784 1.97391371 1.97391619 2.38556268 2.38556351
 2.42110336 3.0527278  3.32661554 3.32661769 3.36961208 3.36961259
 3.45930617 4.41459794 4.4146008  4.55799414]
nelec by numeric integration = 8.004550886624692
    CPU time for vxc      7.20 sec, wall time      0.65 sec
Ewald components = 2.3840572324607e-42, -1.14020834591461, 0.905546168994174
    CPU time for vj and vk      0.25 sec, wall time      0.04 sec
E1 = 4.736051431041409  Ecoul = 1.479338869425498  Exc = -11.875922367429531
Ewald components = 1.76043198403506e-15, -36.7282245445858, 23.9525572427489
cycle= 10 E= -18.4361993687995  delta_E= -1.1e-06  |g|= 0.000811  |ddm|= 0.037
    CPU time for cycle= 10      7.69 sec, wall time      0.70 sec
HOMO = -1.5291584985  LUMO = 0.811722480976
     k-point                  mo_energy
   0 ( 0.000  0.000  0.000)   [-2.35202592 -1.53319434 -1.53318942 -1.5291585 ] [0.81172248 0.81546525 0.81546622 1.09581826 1.42866564 1.58101927
 1.58101929 1.94062047 1.94062316 1.94103393 2.39276059 2.39281392
 2.39281491 3.18257777 3.33141239 3.33162724 3.33163029 3.37519502
 3.37519502 4.42274879 4.42289117 4.42289435]
   1 ( 0.945 -0.000 -0.000)   [-2.34858743 -1.55469307 -1.53950587 -1.53950114] [0.82380712 0.82380831 0.82689783 1.09949801 1.4193703  1.57237724
 1.57237741 1.95600325 1.97391124 1.97391372 2.38556116 2.38556198
 2.42109968 3.05272926 3.32661477 3.32661691 3.36961002 3.36961053
 3.45930412 4.41459628 4.41459914 4.55799096]
nelec by numeric integration = 8.004550478737219
    CPU time for vxc      7.24 sec, wall time      0.65 sec
Ewald components = 2.3840572324607e-42, -1.14020834591461, 0.905546168994174
    CPU time for vj and vk      0.26 sec, wall time      0.04 sec
E1 = 4.736065009119906  Ecoul = 1.4793112795708474  Exc = -11.87590853801245
Ewald components = 1.76043198403506e-15, -36.7282245445858, 23.9525572427489
cycle= 11 E= -18.4361995511586  delta_E= -1.82e-07  |g|= 0.000526  |ddm|= 0.0259
    CPU time for cycle= 11      7.73 sec, wall time      0.71 sec
HOMO = -1.52915432585  LUMO = 0.811716844074
     k-point                  mo_energy
   0 ( 0.000  0.000  0.000)   [-2.35202858 -1.53319413 -1.53318921 -1.52915433] [0.81171684 0.81545856 0.81545952 1.09580912 1.42866571 1.58101736
 1.58101738 1.9406187  1.94062138 1.94103251 2.39275775 2.39281059
 2.39281157 3.18257786 3.33141038 3.33162556 3.33162861 3.37519264
 3.37519264 4.42274642 4.42288868 4.42289186]
   1 ( 0.945 -0.000 -0.000)   [-2.34858993 -1.55469971 -1.53951291 -1.53950818] [0.82380695 0.82380814 0.82689981 1.09949196 1.41937039 1.57237615
 1.57237631 1.95600187 1.97390964 1.97391211 2.38555759 2.38555842
 2.42109697 3.05272904 3.32661261 3.32661475 3.36960785 3.36960836
 3.45930248 4.41459374 4.4145966  4.55798816]
nelec by numeric integration = 8.004550538081197
    CPU time for vxc      7.31 sec, wall time      0.66 sec
Ewald components = 2.3840572324607e-42, -1.14020834591461, 0.905546168994174
    CPU time for vj and vk      0.36 sec, wall time      0.05 sec
E1 = 4.736079831502507  Ecoul = 1.4792861161517064  Exc = -11.875898264909065
Ewald components = 1.76043198403506e-15, -36.7282245445858, 23.9525572427489
cycle= 12 E= -18.4361996190918  delta_E= -6.79e-08  |g|= 0.000481  |ddm|= 0.00222
    CPU time for cycle= 12      7.89 sec, wall time      0.72 sec
HOMO = -1.52914778459  LUMO = 0.811704638482
     k-point                  mo_energy
   0 ( 0.000  0.000  0.000)   [-2.35203289 -1.5331955  -1.53319058 -1.52914778] [0.81170464 0.81544725 0.81544821 1.09579574 1.42866441 1.58101365
 1.58101367 1.94061471 1.9406174  1.94102906 2.39275215 2.39280363
 2.39280462 3.18257703 3.33140718 3.33162202 3.33162507 3.37518812
 3.37518812 4.42274206 4.42288388 4.42288706]
   1 ( 0.945 -0.000 -0.000)   [-2.34859406 -1.55471791 -1.53952722 -1.53952248] [0.82380736 0.82380855 0.82690069 1.09948974 1.4193693  1.57237392
 1.57237408 1.95599874 1.97390595 1.97390842 2.38555016 2.38555099
 2.42109099 3.05272808 3.32660835 3.3266105  3.36960353 3.36960404
 3.45929957 4.41458884 4.4145917  4.55798333]
nelec by numeric integration = 8.004550652299665
    CPU time for vxc      6.86 sec, wall time      0.63 sec
Ewald components = 2.3840572324607e-42, -1.14020834591461, 0.905546168994174
    CPU time for vj and vk      0.26 sec, wall time      0.04 sec
E1 = 4.736109343391999  Ecoul = 1.479238472199219  Exc = -11.87588023758509
Ewald components = 1.76043198403506e-15, -36.7282245445858, 23.9525572427489
cycle= 13 E= -18.4361997238308  delta_E= -1.05e-07  |g|= 0.000292  |ddm|= 0.00477
    CPU time for cycle= 13      7.32 sec, wall time      0.68 sec
HOMO = -1.52914682471  LUMO = 0.811701006062
     k-point                  mo_energy
   0 ( 0.000  0.000  0.000)   [-2.3520341  -1.53319614 -1.53319121 -1.52914682] [0.81170101 0.8154438  0.81544476 1.09579378 1.42866426 1.58101284
 1.58101286 1.94061373 1.94061641 1.94102817 2.39275122 2.39280165
 2.39280264 3.18257699 3.33140682 3.33162093 3.33162398 3.37518691
 3.37518692 4.42274092 4.42288257 4.42288575]
   1 ( 0.945 -0.000 -0.000)   [-2.34859513 -1.55472758 -1.53953269 -1.53952796] [0.82380865 0.82380983 0.82690223 1.09949304 1.41936929 1.57237336
 1.57237352 1.95599805 1.97390508 1.97390756 2.38554797 2.3855488
 2.42108944 3.05272816 3.32660715 3.32660929 3.36960221 3.36960272
 3.45929914 4.41458749 4.41459035 4.55798229]
nelec by numeric integration = 8.004550619216769
    CPU time for vxc      7.28 sec, wall time      0.65 sec
Ewald components = 2.3840572324607e-42, -1.14020834591461, 0.905546168994174
    CPU time for vj and vk      0.26 sec, wall time      0.04 sec
E1 = 4.736117841882709  Ecoul = 1.4792238044931894  Exc = -11.875874095256417
Ewald components = 1.76043198403506e-15, -36.7282245445858, 23.9525572427489
cycle= 14 E= -18.4361997507174  delta_E= -2.69e-08  |g|= 0.000171  |ddm|= 0.00341
    CPU time for cycle= 14      7.75 sec, wall time      0.71 sec
HOMO = -1.52914530376  LUMO = 0.811700266905
     k-point                  mo_energy
   0 ( 0.000  0.000  0.000)   [-2.35203414 -1.53319621 -1.53319129 -1.5291453 ] [0.81170027 0.81544365 0.81544461 1.0957934  1.42866456 1.58101308
 1.58101309 1.94061384 1.94061652 1.94102829 2.39275156 2.39280168
 2.39280267 3.1825775  3.33140715 3.331621   3.33162405 3.37518695
 3.37518696 4.42274097 4.42288264 4.42288582]
   1 ( 0.945 -0.000 -0.000)   [-2.34859497 -1.55472808 -1.5395329  -1.53952817] [0.82380895 0.82381013 0.82690185 1.09949434 1.41936965 1.57237329
 1.57237345 1.95599821 1.97390524 1.97390771 2.38554796 2.38554879
 2.42108949 3.05272868 3.32660721 3.32660936 3.36960223 3.36960273
 3.45929943 4.41458756 4.41459042 4.55798237]
nelec by numeric integration = 8.004550583685077
    CPU time for vxc      7.21 sec, wall time      0.65 sec
Ewald components = 2.3840572324607e-42, -1.14020834591461, 0.905546168994174
    CPU time for vj and vk      0.29 sec, wall time      0.04 sec
E1 = 4.736119134499871  Ecoul = 1.4792235182220792  Exc = -11.875875105686841
Ewald components = 1.76043198403506e-15, -36.7282245445858, 23.9525572427489
Extra cycle  E= -18.4361997548018  delta_E= -4.08e-09  |g|= 0.000132  |ddm|= 0.00119
    CPU time for scf_cycle    538.48 sec, wall time     48.64 sec
    CPU time for SCF    538.51 sec, wall time     48.64 sec
converged SCF energy = -18.4361997548018
Using Python 2.x
Wavefunction successfully saved to QMCPACK HDF5 Format
Use: "convert4qmc -pyscf  scf.h5" to generate QMCPACK input files
