Discarded 6 diffused primitive functions, 0 contracted functions
#INFO: **** input file is /home/j1k/repositories/qmcpack_workshop_2019/day2_nexus/pyscf/04_pyscf_diamond_dft_qmc/runs/diamond/scf/scf.py ****
#!/usr/bin/env python

from pyscf.pbc import df, scf


### generated system text ###
from numpy import array
from pyscf.pbc import gto as gto_loc
cell = gto_loc.Cell()
cell.a             = '''
                     1.78500000   1.78500000   0.00000000
                     0.00000000   1.78500000   1.78500000
                     1.78500000   0.00000000   1.78500000
                     '''
cell.basis         = 'bfd-vdz'
cell.dimension     = 3
cell.ecp           = 'bfd'
cell.unit          = 'A'
cell.atom          = '''
                     C    0.00000000   0.00000000   0.00000000
                     C    0.89250000   0.89250000   0.89250000
                     '''
cell.drop_exponent = 0.1
cell.verbose       = 5
cell.charge        = 0
cell.spin          = 0
cell.build()
kpts = array([
    [0.0, 0.0, 0.0],
    [0.8799979421820149, 0.8799979421820149, -0.8799979421820149]])
### end generated system text ###



gdf = df.FFTDF(cell,kpts)
gdf.auxbasis = 'weigend'

mf = scf.KRHF(cell,kpts).density_fit()
mf.exxdiv  = 'ewald'
mf.with_df = gdf
mf.kernel()

### generated conversion text ###
from PyscfToQmcpack import savetoqmcpack
savetoqmcpack(cell,mf,'scf',kpts)
### end generated conversion text ###

#INFO: ******************** input file end ********************


System: ('Linux', 'viribus', '4.15.0-48-generic', '#51-Ubuntu SMP Wed Apr 3 08:28:49 UTC 2019', 'x86_64', 'x86_64')  Threads 16
Python 2.7.15rc1 (default, Nov 12 2018, 14:31:15) 
[GCC 7.3.0]
numpy 1.15.4  scipy 0.19.1
Date: Thu May  9 12:58:24 2019
PySCF version 1.5.4
PySCF path  /home/j1k/repositories/pyscf/pyscf
GIT HEAD      ref: refs/heads/master
GIT master branch  b10d0ee541f783312ac791d36702ff7a4bc1c637

[CONFIG] conf_file None
[INPUT] verbose = 5
[INPUT] max_memory = 4000 
[INPUT] num. atoms = 2
[INPUT] num. electrons = 8
[INPUT] charge = 0
[INPUT] spin (= nelec alpha-beta = 2S) = 0
[INPUT] symmetry False subgroup None
[INPUT] Mole.unit = A
[INPUT]  1 C      0.000000000000   0.000000000000   0.000000000000 AA    0.000000000000   0.000000000000   0.000000000000 Bohr
[INPUT]  2 C      0.892500000000   0.892500000000   0.892500000000 AA    1.686580566174   1.686580566174   1.686580566174 Bohr
[INPUT] ---------------- BASIS SET ---------------- 
[INPUT] l, kappa, [nprim/nctr], expnt,             c_1 c_2 ...
[INPUT] C
[INPUT] 0    0    [8    /1   ]  13.073594         -0.000705
                                6.541187          0.015176
                                3.272791          -0.121499
                                1.637494          -0.033512
                                0.819297          0.180113
                                0.409924          0.380369
                                0.2051            0.397529
                                0.102619          0.169852
[INPUT] 0    0    [1    /1   ]  0.127852             1
[INPUT] 1    0    [7    /1   ]  7.480076          0.021931
                                3.741035          0.054425
                                1.871016          0.112024
                                0.935757          0.210979
                                0.468003          0.289868
                                0.234064          0.302667
                                0.117063          0.191634
[INPUT] 1    0    [1    /1   ]  0.149161             1
[INPUT] 2    0    [1    /1   ]  0.561161             1

Ewald components = 1.76043198403506e-15, -36.7282245445858, 23.9525572427489
nuclear repulsion = -12.7756673018369
number of shells = 10
number of NR pGTOs = 76
number of NR cGTOs = 26
basis = bfd-vdz
ecp = bfd
CPU time:         0.87
lattice vectors  a1 [3.373161132, 3.373161132, 0.000000000]
                 a2 [0.000000000, 3.373161132, 3.373161132]
                 a3 [3.373161132, 0.000000000, 3.373161132]
dimension = 3
Cell volume = 76.7611
exp_to_discard = 0.1
rcut = 19.243077142883383 (nimgs = [5 5 5])
lattice sum = 911 cells
precision = 1e-08
pseudo = None
ke_cutoff = 210.04046224479163
    = [26 26 26] mesh (17576 PWs)
ew_eta = 2.01651
ew_cut = 3.4228673507667566 (nimgs = [1 1 1])


******** <class 'pyscf.pbc.scf.khf.KRHF'> flags ********
method = KRHF-KSCF-SCF
initial guess = minao
damping factor = 0
level shift factor = 0
DIIS = <class 'pyscf.scf.diis.CDIIS'>
DIIS start cycle = 1
DIIS space = 8
SCF tol = 1e-07
SCF gradient tol = None
max. SCF cycles = 50
direct_scf = False
chkfile to save SCF result = /home/j1k/repositories/qmcpack_workshop_2019/day2_nexus/pyscf/04_pyscf_diamond_dft_qmc/runs/diamond/scf/tmp2nckZp
max_memory 4000 MB (current use 63 MB)


******** PBC SCF flags ********
N kpts = 2
kpts = [[ 0.          0.          0.        ]
 [ 0.87999794  0.87999794 -0.87999794]]
Exchange divergence treatment (exxdiv) = ewald
Ewald components = 2.3840572324607e-42, -1.14020834591461, 0.905546168994174
    madelung (= occupied orbital energy shift) = 0.4693243538408729
    Total energy shift due to Ewald probe charge = -1/2 * Nelec*madelung/cell.vol = -1.87729741536
DF object = <pyscf.pbc.df.fft.FFTDF object at 0x7fd8e482b050>


******** <class 'pyscf.pbc.df.fft.FFTDF'> flags ********
mesh = [26 26 26] (17576 PWs)
len(kpts) = 2
Set gradient conv threshold to 0.000316228
cond(S) = [62153.80803905 63252.14958731]
Ewald components = 2.3840572324607e-42, -1.14020834591461, 0.905546168994174
    CPU time for vj and vk     30.07 sec, wall time      4.18 sec
E1 = (3.5175333041732917-2.1933236973700953e-16j)  E_coul = (-190.03587607250898-2.1896429693193925e-14j)
Ewald components = 1.76043198403506e-15, -36.7282245445858, 23.9525572427489
init E= -199.294010070173
    CPU time for initialize scf    198.83 sec, wall time     18.63 sec
HOMO = -1.67749187651  LUMO = -0.734182045918
     k-point                  mo_energy
   0 ( 0.000  0.000  0.000)   [-44.61885183  -1.81024437  -1.70257133  -1.70252573] [-0.71920835 -0.71915555 -0.71248442 -0.46029328  1.5331391   1.7503146
  1.75031464  2.12117498  2.12507562  2.12517504  2.61540269  2.6155371
  2.61567113  3.35489219  3.59670105  3.59702393  3.59711678  3.64400728
  3.64400729  4.71082554  4.71108755  4.71110496]
   1 ( 0.945 -0.000 -0.000)   [-45.14240381  -1.68669258  -1.67753757  -1.67749188] [-0.73418205 -0.73412834 -0.73391117 -0.4771027   1.52080946  1.74186916
  1.74187085  2.13274215  2.15924694  2.15934542  2.61008632  2.61026495
  2.64806618  3.24244272  3.59277373  3.59287043  3.63800796  3.63802004
  3.70991343  4.70274955  4.70276891  4.84327034]
Ewald components = 2.3840572324607e-42, -1.14020834591461, 0.905546168994174
    CPU time for vj and vk     12.59 sec, wall time      1.27 sec
E1 = (4.821539801869173-5.940445347001749e-16j)  E_coul = (-42.1858936308063-1.3473271977260115e-14j)
Ewald components = 1.76043198403506e-15, -36.7282245445858, 23.9525572427489
cycle= 1 E= -50.140021130774  delta_E=  149  |g|= 7.06  |ddm|= 6.97
    CPU time for cycle= 1     12.63 sec, wall time      1.28 sec
HOMO = -9.84941336471  LUMO = 1.07305176559
     k-point                  mo_energy
   0 ( 0.000  0.000  0.000)   [-10.75778692  -9.86483868  -9.86479515  -9.84941336] [1.07305177 1.0823462  1.08238048 1.38071599 1.64831166 1.85433706
 1.85433711 2.23729149 2.2374058  2.23747597 2.73679415 2.73701108
 2.73721234 3.42108783 3.64011102 3.64025432 3.64033981 3.70936916
 3.70936923 4.76887738 4.77021165 4.77022708]
   1 ( 0.945 -0.000 -0.000)   [-10.75186548  -9.88113498  -9.87168491  -9.87164192] [1.08944939 1.09281975 1.09285469 1.38804021 1.64549958 1.8455831
 1.84558462 2.25202801 2.27351136 2.27361591 2.72710127 2.72730042
 2.75801131 3.30390333 3.63811046 3.63821093 3.7007481  3.70075503
 3.76424198 4.7609996  4.76101687 4.8992615 ]
Ewald components = 2.3840572324607e-42, -1.14020834591461, 0.905546168994174
    CPU time for vj and vk     12.78 sec, wall time      1.27 sec
E1 = (4.767874969133199-5.744238635099763e-16j)  E_coul = (-42.26457701730239-1.3811678580347153e-14j)
Ewald components = 1.76043198403506e-15, -36.7282245445858, 23.9525572427489
cycle= 2 E= -50.2723693500061  delta_E= -0.132  |g|= 6.35  |ddm|= 3.38
    CPU time for cycle= 2     12.82 sec, wall time      1.29 sec
HOMO = -9.76573886281  LUMO = 1.00229094815
     k-point                  mo_energy
   0 ( 0.000  0.000  0.000)   [-10.75896658  -9.84549122  -9.84544773  -9.76573886] [1.00229095 1.06284243 1.06287648 1.36710179 1.64800666 1.85295207
 1.85295211 2.23791452 2.2380266  2.23819726 2.7364195  2.73663917
 2.73677142 3.42062045 3.64000236 3.64027741 3.6403668  3.70956874
 3.70956881 4.76910398 4.77027217 4.77028756]
   1 ( 0.945 -0.000 -0.000)   [-10.75302137  -9.85198538  -9.85194227  -9.79716802] [1.01940957 1.07321057 1.07324521 1.37302124 1.6451787  1.84405626
 1.8440578  2.25301915 2.2740294  2.27413454 2.72677188 2.72697115
 2.75771841 3.30343395 3.63816469 3.63826505 3.70088023 3.70088707
 3.76410345 4.76105855 4.7610758  4.89945092]
Ewald components = 2.3840572324607e-42, -1.14020834591461, 0.905546168994174
    CPU time for vj and vk     12.72 sec, wall time      1.27 sec
E1 = (4.778503092694274-5.735971593534561e-16j)  E_coul = (-42.77124657845809-1.2253598743322547e-14j)
Ewald components = 1.76043198403506e-15, -36.7282245445858, 23.9525572427489
cycle= 3 E= -50.7684107876007  delta_E= -0.496  |g|= 0.481  |ddm|= 1.78
    CPU time for cycle= 3     12.75 sec, wall time      1.28 sec
HOMO = -9.89483091313  LUMO = 1.10598638543
     k-point                  mo_energy
   0 ( 0.000  0.000  0.000)   [-10.76216821  -9.95619579  -9.89487105  -9.89483091] [1.10598639 1.10602144 1.14812982 1.4043759  1.64996684 1.85466422
 1.85466429 2.24225518 2.24236669 2.24426216 2.73530977 2.7355224
 2.73598146 3.41935629 3.64000307 3.64027062 3.64035903 3.71039799
 3.71039805 4.76975411 4.77055881 4.77057409]
   1 ( 0.945 -0.000 -0.000)   [-10.7561673   -9.98814804  -9.90087627  -9.90083634] [1.11573743 1.11577289 1.15804979 1.41835383 1.6470099  1.84608139
 1.846083   2.25854257 2.27827887 2.27838771 2.72570006 2.72589992
 2.7570982  3.30247947 3.63809105 3.63819065 3.70157979 3.7015864
 3.76390128 4.76132414 4.76134129 4.89994816]
Ewald components = 2.3840572324607e-42, -1.14020834591461, 0.905546168994174
    CPU time for vj and vk     12.69 sec, wall time      1.25 sec
E1 = (4.773981036607035-5.557281522981794e-16j)  E_coul = (-42.782388429156825-1.2020983167215782e-14j)
Ewald components = 1.76043198403506e-15, -36.7282245445858, 23.9525572427489
cycle= 4 E= -50.7840746943867  delta_E= -0.0157  |g|= 0.385  |ddm|= 0.512
    CPU time for cycle= 4     12.73 sec, wall time      1.27 sec
HOMO = -9.97880429092  LUMO = 1.15057133437
     k-point                  mo_energy
   0 ( 0.000  0.000  0.000)   [-10.78148787 -10.1850794   -9.97882129  -9.97880429] [1.15057133 1.15060795 1.24240407 1.49640587 1.66586001 1.85625724
 1.85625735 2.27405797 2.27419858 2.27627147 2.73070219 2.7309123
 2.73206825 3.41648166 3.64110476 3.64116611 3.6412213  3.71173631
 3.71173636 4.77028669 4.77054066 4.77055558]
   1 ( 0.945 -0.000 -0.000)   [-10.7755203  -10.2184043   -9.98481565  -9.9847987 ] [1.15983588 1.15987283 1.24340877 1.52007732 1.66225042 1.84808542
 1.84808725 2.29185005 2.31069522 2.31083251 2.72103394 2.72123517
 2.75343626 3.29980215 3.63841107 3.6385055  3.70281511 3.7028213
 3.76407304 4.76128268 4.76129955 4.90034918]
Ewald components = 2.3840572324607e-42, -1.14020834591461, 0.905546168994174
    CPU time for vj and vk     12.79 sec, wall time      1.28 sec
E1 = (4.786204406352278-5.100629120458056e-16j)  E_coul = (-42.81677991026723-1.3775981223818068e-14j)
Ewald components = 1.76043198403506e-15, -36.7282245445858, 23.9525572427489
cycle= 5 E= -50.8062428057519  delta_E= -0.0222  |g|= 0.0947  |ddm|= 1.64
    CPU time for cycle= 5     12.83 sec, wall time      1.29 sec
HOMO = -9.89350513304  LUMO = 1.0925913643
     k-point                  mo_energy
   0 ( 0.000  0.000  0.000)   [-10.76946704  -9.90964925  -9.89354157  -9.89350513] [1.09259136 1.09262714 1.10583504 1.3864626  1.65190467 1.85295779
 1.85295791 2.2478442  2.24801551 2.24812207 2.72886814 2.72908681
 2.72928824 3.41677268 3.63883023 3.63909849 3.63918548 3.71071858
 3.71071867 4.76867051 4.76960833 4.76962333]
   1 ( 0.945 -0.000 -0.000)   [-10.76355991  -9.94297308  -9.90055774  -9.90052156] [1.10272021 1.10275653 1.1193817  1.39636922 1.64842914 1.84421836
 1.84421991 2.26430225 2.2848869  2.28500234 2.71942898 2.71962973
 2.75118956 3.29939415 3.63663131 3.63672944 3.70177213 3.70177852
 3.76229025 4.76037655 4.76039341 4.89852123]
Ewald components = 2.3840572324607e-42, -1.14020834591461, 0.905546168994174
    CPU time for vj and vk     12.90 sec, wall time      1.29 sec
E1 = (4.789687236179873-5.047570976642046e-16j)  E_coul = (-42.820580603873594-1.3647394846161287e-14j)
Ewald components = 1.76043198403506e-15, -36.7282245445858, 23.9525572427489
cycle= 6 E= -50.8065606695306  delta_E= -0.000318  |g|= 0.0629  |ddm|= 0.212
    CPU time for cycle= 6     12.94 sec, wall time      1.30 sec
HOMO = -9.86389434786  LUMO = 1.07406348958
     k-point                  mo_energy
   0 ( 0.000  0.000  0.000)   [-10.76696005  -9.87844823  -9.87840749  -9.86389435] [1.07406349 1.08302227 1.08305785 1.37764108 1.64929168 1.8523869
 1.85238702 2.24196262 2.24229345 2.24240104 2.72837679 2.72860338
 2.72864876 3.41689578 3.63833647 3.63865241 3.63874075 3.71041936
 3.71041945 4.76830749 4.76933529 4.76935029]
   1 ( 0.945 -0.000 -0.000)   [-10.76103495  -9.89724474  -9.88565494  -9.88561454] [1.08935568 1.09331841 1.09335457 1.38563586 1.645915   1.84356123
 1.84356273 2.25842551 2.27918143 2.27929211 2.71899393 2.71919454
 2.75066406 3.29940526 3.63623165 3.63633052 3.70146589 3.70147232
 3.76189501 4.76010804 4.7601249  4.89807753]
Ewald components = 2.3840572324607e-42, -1.14020834591461, 0.905546168994174
    CPU time for vj and vk     12.85 sec, wall time      1.28 sec
E1 = (4.791048365958085-5.015722537825285e-16j)  E_coul = (-42.822047887491166-9.93801395343663e-15j)
Ewald components = 1.76043198403506e-15, -36.7282245445858, 23.9525572427489
cycle= 7 E= -50.80666682337  delta_E= -0.000106  |g|= 0.0507  |ddm|= 0.127
    CPU time for cycle= 7     12.88 sec, wall time      1.29 sec
HOMO = -9.87541385854  LUMO = 1.08231236235
     k-point                  mo_energy
   0 ( 0.000  0.000  0.000)   [-10.76744844  -9.88186183  -9.88182134  -9.87541386] [1.08231236 1.085269   1.08530456 1.37942355 1.64965238 1.8524032
 1.85240332 2.24242107 2.24270765 2.24281485 2.72809651 2.72832041
 2.72840158 3.41695519 3.6383154  3.63862054 3.63870865 3.71027276
 3.71027286 4.76822043 4.76918646 4.76920145]
   1 ( 0.945 -0.000 -0.000)   [-10.76148604  -9.90879586  -9.88906097  -9.88902083] [1.09555994 1.09559622 1.09734473 1.38775537 1.64622727 1.84360203
 1.84360354 2.25887585 2.2795781  2.27968921 2.71871236 2.71891292
 2.75043825 3.2994657  3.63617472 3.63627349 3.70131932 3.70132575
 3.76185027 4.75995844 4.75997529 4.89793948]
Ewald components = 2.3840572324607e-42, -1.14020834591461, 0.905546168994174
    CPU time for vj and vk     12.98 sec, wall time      1.30 sec
E1 = (4.7927295900007225-4.938202082492571e-16j)  E_coul = (-42.82382803930635-1.1892613629993498e-14j)
Ewald components = 1.76043198403506e-15, -36.7282245445858, 23.9525572427489
cycle= 8 E= -50.8067657511425  delta_E= -9.89e-05  |g|= 0.0401  |ddm|= 0.138
    CPU time for cycle= 8     13.02 sec, wall time      1.31 sec
HOMO = -9.85393838755  LUMO = 1.06453112229
     k-point                  mo_energy
   0 ( 0.000  0.000  0.000)   [-10.76750821  -9.87690187  -9.87686101  -9.85393839] [1.06453112 1.07989823 1.07993371 1.3748173  1.64957906 1.85201176
 1.85201187 2.24166027 2.24213714 2.24224634 2.72753976 2.72776602
 2.72781282 3.41710849 3.63813389 3.63842909 3.63851719 3.70993462
 3.70993473 4.76783578 4.76887392 4.76888891]
   1 ( 0.945 -0.000 -0.000)   [-10.76153604  -9.88718827  -9.8841423   -9.88410182] [1.08030936 1.09023422 1.0902703  1.38220086 1.64610321 1.84318738
 1.84318889 2.25825654 2.27902202 2.27913281 2.71816777 2.71836818
 2.74990763 3.2995154  3.63595093 3.6360498  3.70098904 3.7009955
 3.76167382 4.7596487  4.75966555 4.89751053]
Ewald components = 2.3840572324607e-42, -1.14020834591461, 0.905546168994174
    CPU time for vj and vk     12.95 sec, wall time      1.30 sec
E1 = (4.795341078581373-4.895443859315174e-16j)  E_coul = (-42.82657089125887-1.1984879234872015e-14j)
Ewald components = 1.76043198403506e-15, -36.7282245445858, 23.9525572427489
cycle= 9 E= -50.8068971145144  delta_E= -0.000131  |g|= 0.0287  |ddm|= 0.243
    CPU time for cycle= 9     12.99 sec, wall time      1.31 sec
HOMO = -9.87742643842  LUMO = 1.07990946223
     k-point                  mo_energy
   0 ( 0.000  0.000  0.000)   [-10.76916814  -9.88503439  -9.884995    -9.87742644] [1.07990946 1.0839402  1.08397566 1.37802898 1.65097944 1.85198418
 1.85198429 2.24382659 2.24425106 2.24436176 2.72683244 2.727052
 2.72721308 3.41728524 3.63815829 3.63840698 3.63849395 3.70954069
 3.70954082 4.7675403  4.76848423 4.76849921]
   1 ( 0.945 -0.000 -0.000)   [-10.76316727  -9.91065011  -9.8922521   -9.89221308] [1.09427104 1.09430728 1.09530266 1.38587626 1.64734575 1.84322557
 1.84322715 2.26048356 2.28109845 2.28121123 2.71744896 2.71764919
 2.74935255 3.29966396 3.63584331 3.63594171 3.70060051 3.70060698
 3.76163479 4.75925782 4.75927466 4.89715623]
Ewald components = 2.3840572324607e-42, -1.14020834591461, 0.905546168994174
    CPU time for vj and vk     13.02 sec, wall time      1.31 sec
E1 = (4.799694858891374-4.861020440338759e-16j)  E_coul = (-42.83105327442635-1.2844759977870268e-14j)
Ewald components = 1.76043198403506e-15, -36.7282245445858, 23.9525572427489
cycle= 10 E= -50.8070257173719  delta_E= -0.000129  |g|= 0.0172  |ddm|= 0.41
    CPU time for cycle= 10     13.05 sec, wall time      1.32 sec
HOMO = -9.87667290411  LUMO = 1.08091522378
     k-point                  mo_energy
   0 ( 0.000  0.000  0.000)   [-10.76817779  -9.88300364  -9.88296236  -9.8766729 ] [1.08091522 1.08410349 1.08413892 1.3781936  1.64991115 1.85189355
 1.85189366 2.24130535 2.24167232 2.24178042 2.72655461 2.72677484
 2.72691732 3.41734505 3.63794333 3.63820694 3.63829444 3.70939306
 3.70939321 4.7674438  4.76833317 4.76834813]
   1 ( 0.945 -0.000 -0.000)   [-10.76217701  -9.91003756  -9.89034977  -9.89030891] [1.0945488  1.094585   1.09670679 1.3857701  1.6463048  1.84313697
 1.84313853 2.2578805  2.27849565 2.27860629 2.71719795 2.71739809
 2.74911911 3.29969283 3.63565275 3.63575143 3.70043938 3.70044588
 3.7614621  4.75910688 4.75912371 4.89702357]
Ewald components = 2.3840572324607e-42, -1.14020834591461, 0.905546168994174
    CPU time for vj and vk     13.05 sec, wall time      1.30 sec
E1 = (4.800879642315484-4.850381706521245e-16j)  E_coul = (-42.83226999813012-1.245423035534099e-14j)
Ewald components = 1.76043198403506e-15, -36.7282245445858, 23.9525572427489
cycle= 11 E= -50.8070576576516  delta_E= -3.19e-05  |g|= 0.0177  |ddm|= 0.153
    CPU time for cycle= 11     13.08 sec, wall time      1.32 sec
HOMO = -9.87591001956  LUMO = 1.08074142107
     k-point                  mo_energy
   0 ( 0.000  0.000  0.000)   [-10.76812183  -9.88281522  -9.88277443  -9.87591002] [1.08074142 1.08416499 1.08420036 1.37823006 1.64999869 1.85196109
 1.8519612  2.24155933 2.24200588 2.24211502 2.72682228 2.72704342
 2.72716695 3.41730823 3.63797896 3.63824211 3.63832974 3.7095285
 3.70952868 4.76757542 4.76846401 4.76847897]
   1 ( 0.945 -0.000 -0.000)   [-10.76211276  -9.90926711  -9.8902465   -9.89020618] [1.09469759 1.0947338  1.0968655  1.38548939 1.64639165 1.84322054
 1.84322213 2.25815102 2.27883137 2.27894225 2.71746459 2.71766474
 2.74935689 3.29959882 3.63568308 3.63578189 3.70056267 3.70056922
 3.76153133 4.75923679 4.75925361 4.89716766]
Ewald components = 2.3840572324607e-42, -1.14020834591461, 0.905546168994174
    CPU time for vj and vk     13.07 sec, wall time      1.31 sec
E1 = (4.7993162694454705-4.873285477415001e-16j)  E_coul = (-42.83077004886156-1.2373999394577062e-14j)
Ewald components = 1.76043198403506e-15, -36.7282245445858, 23.9525572427489
cycle= 12 E= -50.807121081253  delta_E= -6.34e-05  |g|= 0.014  |ddm|= 0.165
    CPU time for cycle= 12     13.11 sec, wall time      1.32 sec
HOMO = -9.87545285752  LUMO = 1.08096144433
     k-point                  mo_energy
   0 ( 0.000  0.000  0.000)   [-10.76774205  -9.88211321  -9.88207262  -9.87545286] [1.08096144 1.08441902 1.08445443 1.37903502 1.64986958 1.85209647
 1.85209659 2.24167082 2.24209623 2.24220514 2.72734704 2.72756856
 2.7276861  3.41725429 3.63810889 3.63837481 3.63846249 3.70977511
 3.70977532 4.76782141 4.76871174 4.76872668]
   1 ( 0.945 -0.000 -0.000)   [-10.76172988  -9.90885959  -9.88964306  -9.88960299] [1.09505416 1.09509047 1.09749567 1.38594099 1.64629199 1.84337495
 1.84337657 2.25823423 2.27891407 2.27902487 2.71798801 2.71818819
 2.7498519  3.29951606 3.63582453 3.63592329 3.70079388 3.70080051
 3.76171826 4.7594825  4.7594993  4.89744422]
Ewald components = 2.3840572324607e-42, -1.14020834591461, 0.905546168994174
    CPU time for vj and vk     13.08 sec, wall time      1.31 sec
E1 = (4.796321046926518-4.837371280451419e-16j)  E_coul = (-42.827802894767004-1.2510066767223993e-14j)
Ewald components = 1.76043198403506e-15, -36.7282245445858, 23.9525572427489
cycle= 13 E= -50.8071491496774  delta_E= -2.81e-05  |g|= 0.0135  |ddm|= 0.218
    CPU time for cycle= 13     13.12 sec, wall time      1.32 sec
HOMO = -9.87606642676  LUMO = 1.08105759142
     k-point                  mo_energy
   0 ( 0.000  0.000  0.000)   [-10.76775008  -9.88218276  -9.88214208  -9.87606643] [1.08105759 1.0844506  1.08448604 1.37946072 1.64987333 1.8520998
 1.85209992 2.24182116 2.24216643 2.24227444 2.72737952 2.72760027
 2.72773394 3.41725288 3.63814788 3.6384131  3.63850065 3.70979338
 3.7097936  4.76784554 4.76872674 4.76874168]
   1 ( 0.945 -0.000 -0.000)   [-10.76173613  -9.9095511   -9.88974426  -9.88970412] [1.09512187 1.09515823 1.09775212 1.38626349 1.64629502 1.8433843
 1.84338594 2.25837855 2.27897399 2.27908477 2.71802166 2.71822185
 2.74990817 3.29951975 3.63585935 3.63595796 3.70080928 3.70081592
 3.76177212 4.75949655 4.75951334 4.89746871]
Ewald components = 2.3840572324607e-42, -1.14020834591461, 0.905546168994174
    CPU time for vj and vk     13.25 sec, wall time      1.33 sec
E1 = (4.7961617697791645-4.88473736286188e-16j)  E_coul = (-42.82764994082542-1.2452495631865013e-14j)
Ewald components = 1.76043198403506e-15, -36.7282245445858, 23.9525572427489
cycle= 14 E= -50.8071554728832  delta_E= -6.32e-06  |g|= 0.0142  |ddm|= 0.0546
    CPU time for cycle= 14     13.29 sec, wall time      1.34 sec
HOMO = -9.87553239167  LUMO = 1.08068489389
     k-point                  mo_energy
   0 ( 0.000  0.000  0.000)   [-10.7677987   -9.8821333   -9.88209247  -9.87553239] [1.08068489 1.08430054 1.08433586 1.3790841  1.64989674 1.85206563
 1.85206577 2.24175393 2.24209763 2.24220558 2.72728516 2.72750682
 2.72762228 3.41726723 3.63811334 3.63837946 3.63846704 3.70975433
 3.70975458 4.7677921  4.76867999 4.76869491]
   1 ( 0.945 -0.000 -0.000)   [-10.76178691  -9.90918887  -9.88976382  -9.88972357] [1.09504129 1.09507758 1.09760628 1.38581172 1.64630563 1.84335505
 1.84335671 2.25832691 2.27890918 2.27901989 2.71793119 2.71813138
 2.7498164  3.29950191 3.63580679 3.6359054  3.70076589 3.70077257
 3.76175677 4.75944759 4.75946437 4.89741733]
Ewald components = 2.3840572324607e-42, -1.14020834591461, 0.905546168994174
    CPU time for vj and vk     13.43 sec, wall time      1.34 sec
E1 = (4.796738569972898-4.899509617461995e-16j)  E_coul = (-42.82824233229091-1.1795794375990543e-14j)
Ewald components = 1.76043198403506e-15, -36.7282245445858, 23.9525572427489
cycle= 15 E= -50.8071710641549  delta_E= -1.56e-05  |g|= 0.014  |ddm|= 0.0567
    CPU time for cycle= 15     13.47 sec, wall time      1.36 sec
HOMO = -9.87619495854  LUMO = 1.08037385007
     k-point                  mo_energy
   0 ( 0.000  0.000  0.000)   [-10.76807608  -9.88255967  -9.88251861  -9.87619496] [1.08037385 1.08400145 1.08403673 1.37885128 1.65000123 1.85191849
 1.85191865 2.24152667 2.24189357 2.24200178 2.72683261 2.72705492
 2.72715754 3.41735303 3.63800536 3.63826622 3.63835368 3.70952988
 3.70953017 4.76757851 4.76844869 4.7684636 ]
   1 ( 0.945 -0.000 -0.000)   [-10.7620522   -9.91005449  -9.8902878   -9.89024739] [1.09483927 1.09487558 1.09767877 1.38537093 1.64636712 1.84321676
 1.84321847 2.25814142 2.27870902 2.27881964 2.7174865  2.71768663
 2.74939846 3.29953197 3.63565056 3.63574911 3.70053839 3.70054511
 3.76165742 4.75921347 4.75923023 4.89716854]
Ewald components = 2.3840572324607e-42, -1.14020834591461, 0.905546168994174
    CPU time for vj and vk     13.20 sec, wall time      1.32 sec
E1 = (4.799349480709853-4.80999517559616e-16j)  E_coul = (-42.83087174110389-1.221256169109397e-14j)
Ewald components = 1.76043198403506e-15, -36.7282245445858, 23.9525572427489
cycle= 16 E= -50.807189562231  delta_E= -1.85e-05  |g|= 0.00525  |ddm|= 0.162
    CPU time for cycle= 16     13.25 sec, wall time      1.34 sec
HOMO = -9.87630399059  LUMO = 1.08039109835
     k-point                  mo_energy
   0 ( 0.000  0.000  0.000)   [-10.76808014  -9.88258964  -9.88254857  -9.87630399] [1.0803911  1.08399794 1.08403322 1.37890259 1.65000257 1.85191284
 1.851913   2.24151411 2.24189338 2.24200174 2.72681641 2.7270389
 2.72713827 3.41735505 3.63800645 3.63826458 3.63835199 3.70952231
 3.70952261 4.76756736 4.76844119 4.76845609]
   1 ( 0.945 -0.000 -0.000)   [-10.7620536   -9.91018808  -9.89032348  -9.89028308] [1.09483743 1.09487374 1.09770689 1.38543644 1.64636868 1.84321168
 1.84321339 2.25813521 2.27871501 2.27882564 2.7174692  2.71766932
 2.74937504 3.29953229 3.63564572 3.63574425 3.70053091 3.70053764
 3.7616558  4.75920551 4.75922227 4.89715351]
Ewald components = 2.3840572324607e-42, -1.14020834591461, 0.905546168994174
    CPU time for vj and vk     13.08 sec, wall time      1.30 sec
E1 = (4.7994569258662185-4.835270638742228e-16j)  E_coul = (-42.830980160925385-1.2667492922668888e-14j)
Ewald components = 1.76043198403506e-15, -36.7282245445858, 23.9525572427489
cycle= 17 E= -50.8071905368961  delta_E= -9.75e-07  |g|= 0.00501  |ddm|= 0.00449
    CPU time for cycle= 17     13.12 sec, wall time      1.31 sec
HOMO = -9.87644662589  LUMO = 1.08040459985
     k-point                  mo_energy
   0 ( 0.000  0.000  0.000)   [-10.76809375  -9.88262772  -9.88258663  -9.87644663] [1.0804046  1.08398683 1.08402212 1.37895653 1.65000905 1.85190381
 1.85190398 2.2415023  2.24188356 2.24199195 2.72679195 2.72701438
 2.7271147  3.41736253 3.63800424 3.63826086 3.63834823 3.70950726
 3.70950756 4.76755351 4.76842725 4.76844216]
   1 ( 0.945 -0.000 -0.000)   [-10.76206409  -9.91036629  -9.8903714   -9.89033101] [1.09483577 1.0948721  1.09775776 1.38548868 1.64637395 1.84320386
 1.84320558 2.25812783 2.27870709 2.27881772 2.71744323 2.71764334
 2.74934775 3.29953846 3.63563841 3.63573694 3.70051578 3.70052252
 3.76165385 4.75919117 4.75920793 4.89713413]
Ewald components = 2.3840572324607e-42, -1.14020834591461, 0.905546168994174
    CPU time for vj and vk     13.15 sec, wall time      1.31 sec
E1 = (4.79960550590416-4.796036072625409e-16j)  E_coul = (-42.83112933120835-1.2638869985315271e-14j)
Ewald components = 1.76043198403506e-15, -36.7282245445858, 23.9525572427489
cycle= 18 E= -50.8071911271411  delta_E= -5.9e-07  |g|= 0.00482  |ddm|= 0.0145
    CPU time for cycle= 18     13.19 sec, wall time      1.33 sec
HOMO = -9.87665462309  LUMO = 1.08033407052
     k-point                  mo_energy
   0 ( 0.000  0.000  0.000)   [-10.76815148  -9.88273429  -9.88269315  -9.87665462] [1.08033407 1.08390811 1.08394337 1.37894318 1.65003623 1.8518668
 1.85186699 2.24144809 2.2418348  2.24194324 2.72669467 2.72691673
 2.72702313 3.41739234 3.63798667 3.63823998 3.63832728 3.70944591
 3.70944623 4.76749512 4.76837114 4.76838604]
   1 ( 0.945 -0.000 -0.000)   [-10.76210908  -9.91072562  -9.89051564  -9.89047522] [1.09479735 1.09483367 1.09782281 1.38549354 1.64639809 1.8431703
 1.84317204 2.25808982 2.27866472 2.27877531 2.71733728 2.71753733
 2.74923407 3.29956621 3.63560351 3.635702   3.70045438 3.70046114
 3.76163959 4.75913319 4.75914994 4.89705237]
Ewald components = 2.3840572324607e-42, -1.14020834591461, 0.905546168994174
    CPU time for vj and vk     13.16 sec, wall time      1.32 sec
E1 = (4.800217821470511-4.806403755899802e-16j)  E_coul = (-42.83174377869956-1.2342232270923237e-14j)
Ewald components = 1.76043198403506e-15, -36.7282245445858, 23.9525572427489
cycle= 19 E= -50.807193259066  delta_E= -2.13e-06  |g|= 0.00526  |ddm|= 0.0488
    CPU time for cycle= 19     13.24 sec, wall time      1.35 sec
HOMO = -9.87637116925  LUMO = 1.08025277135
     k-point                  mo_energy
   0 ( 0.000  0.000  0.000)   [-10.76814176  -9.88267691  -9.88263577  -9.87637117] [1.08025277 1.08389233 1.08392755 1.37880541 1.65003551 1.85187092
 1.85187111 2.24144861 2.24183371 2.24194213 2.72671503 2.72693705
 2.72704421 3.41739067 3.63798313 3.63823929 3.63832666 3.70945411
 3.70945444 4.76750022 4.76838052 4.76839542]
   1 ( 0.945 -0.000 -0.000)   [-10.76209738  -9.91048839  -9.89046797  -9.89042756] [1.09479592 1.09483221 1.09777037 1.38537414 1.64640153 1.84317445
 1.84317621 2.25809103 2.27866395 2.27877454 2.71735345 2.7175535
 2.74924189 3.29956567 3.6356017  3.63570022 3.7004616  3.70046837
 3.76164217 4.75914181 4.75915857 4.89705523]
Ewald components = 2.3840572324607e-42, -1.14020834591461, 0.905546168994174
    CPU time for vj and vk     13.07 sec, wall time      1.30 sec
E1 = (4.800134527082213-4.845977135195523e-16j)  E_coul = (-42.83166223437294-1.322162865302623e-14j)
Ewald components = 1.76043198403506e-15, -36.7282245445858, 23.9525572427489
cycle= 20 E= -50.8071950091276  delta_E= -1.75e-06  |g|= 0.00468  |ddm|= 0.00962
    CPU time for cycle= 20     13.11 sec, wall time      1.32 sec
HOMO = -9.87633420734  LUMO = 1.08024292157
     k-point                  mo_energy
   0 ( 0.000  0.000  0.000)   [-10.7681389   -9.88266781  -9.88262667  -9.87633421] [1.08024292 1.0838921  1.0839273  1.37879849 1.65003444 1.85187222
 1.85187241 2.24145217 2.2418377  2.24194613 2.72672305 2.72694504
 2.72705286 3.41738967 3.63798487 3.6382421  3.63832949 3.7094578
 3.70945813 4.76750125 4.76838509 4.76839999]
   1 ( 0.945 -0.000 -0.000)   [-10.76209178  -9.9105015   -9.8904671   -9.8904267 ] [1.09480536 1.09484164 1.09778383 1.38539386 1.64640439 1.84317575
 1.84317751 2.25809581 2.27867046 2.27878104 2.71735813 2.71755818
 2.74923968 3.29956767 3.63560323 3.63570174 3.70046469 3.70047147
 3.76164591 4.75914568 4.75916244 4.8970534 ]
Ewald components = 2.3840572324607e-42, -1.14020834591461, 0.905546168994174
    CPU time for vj and vk     13.43 sec, wall time      1.35 sec
E1 = (4.800113665755433-4.783364459734485e-16j)  E_coul = (-42.831642877769106-1.3499943350703258e-14j)
Ewald components = 1.76043198403506e-15, -36.7282245445858, 23.9525572427489
cycle= 21 E= -50.8071965138506  delta_E= -1.5e-06  |g|= 0.00428  |ddm|= 0.0113
    CPU time for cycle= 21     13.47 sec, wall time      1.36 sec
HOMO = -9.87612511035  LUMO = 1.08031663119
     k-point                  mo_energy
   0 ( 0.000  0.000  0.000)   [-10.76806029  -9.88252311  -9.882482    -9.87612511] [1.08031663 1.08398353 1.08401871 1.37893012 1.65000084 1.85191635
 1.85191655 2.24153036 2.24191181 2.2420202  2.72687669 2.72709868
 2.72720713 3.41735897 3.63802144 3.63828684 3.63837435 3.70953963
 3.70953999 4.7675673  4.76846963 4.76848453]
   1 ( 0.945 -0.000 -0.000)   [-10.76200284  -9.91048207  -9.8903453   -9.89030496] [1.09492451 1.09496079 1.09790054 1.38566822 1.64639955 1.84321818
 1.84321998 2.25816952 2.27875615 2.27886672 2.71749768 2.71769774
 2.74934225 3.29955862 3.63565202 3.63575051 3.70054266 3.70054947
 3.76169213 4.75922737 4.75924412 4.89711967]
Ewald components = 2.3840572324607e-42, -1.14020834591461, 0.905546168994174
    CPU time for vj and vk     13.24 sec, wall time      1.32 sec
E1 = (4.799358814809075-4.828223324621073e-16j)  E_coul = (-42.83089291815457-1.2223945813905068e-14j)
Ewald components = 1.76043198403506e-15, -36.7282245445858, 23.9525572427489
cycle= 22 E= -50.8072014051824  delta_E= -4.89e-06  |g|= 0.00404  |ddm|= 0.108
    CPU time for cycle= 22     13.27 sec, wall time      1.33 sec
HOMO = -9.87606389756  LUMO = 1.08032702441
     k-point                  mo_energy
   0 ( 0.000  0.000  0.000)   [-10.76804976  -9.88249978  -9.88245867  -9.8760639 ] [1.08032702 1.08399695 1.08403212 1.3789263  1.6499961  1.85192252
 1.85192272 2.24154122 2.24192208 2.24203046 2.72690398 2.72712589
 2.727236   3.41735698 3.63802673 3.63829509 3.63838265 3.70955184
 3.70955221 4.76757492 4.76848431 4.76849921]
   1 ( 0.945 -0.000 -0.000)   [-10.76198361  -9.91051962  -9.89033578  -9.89029546] [1.09495408 1.09499036 1.09794221 1.38573075 1.64640444 1.84322389
 1.84322569 2.25818042 2.27877198 2.27888253 2.71751849 2.71771855
 2.74934951 3.29956387 3.63565883 3.63575731 3.70055359 3.70056041
 3.76170089 4.75924064 4.75925739 4.89712081]
Ewald components = 2.3840572324607e-42, -1.14020834591461, 0.905546168994174
    CPU time for vj and vk     13.26 sec, wall time      1.32 sec
E1 = (4.7992611211498115-4.860275051345175e-16j)  E_coul = (-42.83079614397923-1.2438075742970955e-14j)
Ewald components = 1.76043198403506e-15, -36.7282245445858, 23.9525572427489
cycle= 23 E= -50.8072023246663  delta_E= -9.19e-07  |g|= 0.00435  |ddm|= 0.039
    CPU time for cycle= 23     13.30 sec, wall time      1.33 sec
HOMO = -9.87608117109  LUMO = 1.08029090009
     k-point                  mo_energy
   0 ( 0.000  0.000  0.000)   [-10.76807967  -9.88254637  -9.88250523  -9.87608117] [1.0802909  1.08396057 1.08399572 1.37884155 1.65000883 1.85190591
 1.85190612 2.24151193 2.24189539 2.24200379 2.72685487 2.72707674
 2.72718745 3.41737076 3.63801329 3.63828114 3.63836869 3.70952255
 3.70952293 4.76754817 4.76845674 4.76847163]
   1 ( 0.945 -0.000 -0.000)   [-10.76200777  -9.9105626   -9.89038869  -9.89034835] [1.09492443 1.0949607  1.09792761 1.38565072 1.64641384 1.84320772
 1.84320953 2.25815404 2.27874607 2.27885661 2.7174688  2.71766885
 2.74930184 3.29957442 3.63564062 3.63573911 3.70052465 3.70053148
 3.76168689 4.75921279 4.75922953 4.89708578]
Ewald components = 2.3840572324607e-42, -1.14020834591461, 0.905546168994174
    CPU time for vj and vk     13.31 sec, wall time      1.32 sec
E1 = (4.799547877772803-4.802202472481421e-16j)  E_coul = (-42.83108383608929-1.1200675803513249e-14j)
Ewald components = 1.76043198403506e-15, -36.7282245445858, 23.9525572427489
cycle= 24 E= -50.8072032601534  delta_E= -9.35e-07  |g|= 0.00287  |ddm|= 0.0165
    CPU time for cycle= 24     13.35 sec, wall time      1.33 sec
HOMO = -9.8760933024  LUMO = 1.08027184212
     k-point                  mo_energy
   0 ( 0.000  0.000  0.000)   [-10.76809049  -9.88256213  -9.88252098  -9.8760933 ] [1.08027184 1.08394597 1.08398112 1.37882462 1.6500132  1.85190026
 1.85190047 2.24150238 2.24188713 2.24199555 2.72683776 2.72705963
 2.72717021 3.41737534 3.63800922 3.63827692 3.63836446 3.70951234
 3.70951272 4.76753912 4.7684472  4.76846209]
   1 ( 0.945 -0.000 -0.000)   [-10.76201671  -9.91058397  -9.89040618  -9.89036583] [1.09491162 1.09494789 1.09791343 1.38563745 1.64641717 1.84320221
 1.84320402 2.25814625 2.27873812 2.27884866 2.71745148 2.71765152
 2.74928482 3.29957829 3.63563499 3.63573348 3.70051466 3.70052149
 3.76168235 4.75920317 4.75921991 4.89707401]
Ewald components = 2.3840572324607e-42, -1.14020834591461, 0.905546168994174
    CPU time for vj and vk     13.32 sec, wall time      1.33 sec
E1 = (4.799647220106243-4.799017628599744e-16j)  E_coul = (-42.83118343389503-1.1718816021744072e-14j)
Ewald components = 1.76043198403506e-15, -36.7282245445858, 23.9525572427489
cycle= 25 E= -50.8072035156257  delta_E= -2.55e-07  |g|= 0.00239  |ddm|= 0.0056
    CPU time for cycle= 25     13.36 sec, wall time      1.34 sec
HOMO = -9.87611521894  LUMO = 1.08025024438
     k-point                  mo_energy
   0 ( 0.000  0.000  0.000)   [-10.76810596  -9.8825867   -9.88254554  -9.87611522] [1.08025024 1.08392679 1.08396193 1.37879772 1.6500192  1.85189208
 1.85189229 2.24148863 2.24187502 2.24198345 2.72681245 2.72703432
 2.7271449  3.41738166 3.63800318 3.63827055 3.63835809 3.70949772
 3.7094981  4.76752592 4.76843337 4.76844826]
   1 ( 0.945 -0.000 -0.000)   [-10.76203026  -9.91061496  -9.89043212  -9.89039176] [1.09489367 1.09492993 1.09789429 1.38561591 1.64642163 1.84319413
 1.84319595 2.25813465 2.27872634 2.27883687 2.71742613 2.71762616
 2.74926079 3.29958369 3.63562682 3.6357253  3.70050044 3.70050727
 3.76167527 4.75918928 4.75920602 4.89705757]
Ewald components = 2.3840572324607e-42, -1.14020834591461, 0.905546168994174
    CPU time for vj and vk     13.35 sec, wall time      1.34 sec
E1 = (4.799792415891617-4.789801910133618e-16j)  E_coul = (-42.83132891592191-1.25208003687316e-14j)
Ewald components = 1.76043198403506e-15, -36.7282245445858, 23.9525572427489
cycle= 26 E= -50.8072038018672  delta_E= -2.86e-07  |g|= 0.00183  |ddm|= 0.00848
    CPU time for cycle= 26     13.39 sec, wall time      1.35 sec
HOMO = -9.87611829741  LUMO = 1.08023985902
     k-point                  mo_energy
   0 ( 0.000  0.000  0.000)   [-10.76811898  -9.88260802  -9.88256684  -9.8761183 ] [1.08023986 1.08391435 1.08394948 1.37876384 1.6500229  1.85188628
 1.85188649 2.24147807 2.2418663  2.24197474 2.72679561 2.72701742
 2.72712902 3.41738681 3.63799828 3.63826697 3.63835453 3.70948697
 3.70948736 4.76751305 4.76842488 4.76843977]
   1 ( 0.945 -0.000 -0.000)   [-10.76203768  -9.9106772   -9.89045955  -9.89041918] [1.09488789 1.09492414 1.09788628 1.38563551 1.64642981 1.84318782
 1.84318965 2.25812611 2.27872129 2.2788318  2.71740576 2.71760578
 2.74923528 3.29959339 3.63562098 3.63571945 3.70048983 3.70049668
 3.76166965 4.75918005 4.75919679 4.89703903]
Ewald components = 2.3840572324607e-42, -1.14020834591461, 0.905546168994174
    CPU time for vj and vk     13.28 sec, wall time      1.32 sec
E1 = (4.799917751297218-4.800237356043791e-16j)  E_coul = (-42.83145497955428-1.2562758992806788e-14j)
Ewald components = 1.76043198403506e-15, -36.7282245445858, 23.9525572427489
cycle= 27 E= -50.807204530094  delta_E= -7.28e-07  |g|= 0.00121  |ddm|= 0.0259
    CPU time for cycle= 27     13.32 sec, wall time      1.33 sec
HOMO = -9.876125362  LUMO = 1.08021460873
     k-point                  mo_energy
   0 ( 0.000  0.000  0.000)   [-10.76814153  -9.88264302  -9.88260182  -9.87612536] [1.08021461 1.08388917 1.08392428 1.37870301 1.65003044 1.85187515
 1.85187537 2.24145888 2.24184964 2.24195811 2.7267618  2.72698357
 2.72709578 3.41739534 3.63798954 3.63825879 3.63834635 3.70946728
 3.70946768 4.76749317 4.76840715 4.76842203]
   1 ( 0.945 -0.000 -0.000)   [-10.762055    -9.91072805  -9.89049951  -9.89045912] [1.09486783 1.09490407 1.09786414 1.38561276 1.64643876 1.84317643
 1.84317827 2.25810939 2.2787072  2.2788177  2.7173698  2.71756981
 2.74919753 3.29960388 3.63560983 3.6357083  3.70047056 3.70047742
 3.76165939 4.75916181 4.75917855 4.8970128 ]
Ewald components = 2.3840572324607e-42, -1.14020834591461, 0.905546168994174
    CPU time for vj and vk     13.35 sec, wall time      1.34 sec
E1 = (4.800130090749253-4.820227333598992e-16j)  E_coul = (-42.83166759554393-1.3638504388346906e-14j)
Ewald components = 1.76043198403506e-15, -36.7282245445858, 23.9525572427489
cycle= 28 E= -50.8072048066316  delta_E= -2.77e-07  |g|= 0.000738  |ddm|= 0.0187
    CPU time for cycle= 28     13.39 sec, wall time      1.36 sec
HOMO = -9.87609461973  LUMO = 1.08021979572
     k-point                  mo_energy
   0 ( 0.000  0.000  0.000)   [-10.7681375   -9.88263389  -9.88259269  -9.87609462] [1.0802198  1.08389511 1.08393022 1.37869292 1.65002782 1.85187789
 1.85187811 2.24146322 2.24185392 2.24196239 2.72677021 2.72699199
 2.72710405 3.41739259 3.63799123 3.63826114 3.63834871 3.70947288
 3.70947329 4.76749748 4.76841256 4.76842744]
   1 ( 0.945 -0.000 -0.000)   [-10.76205025  -9.91070716  -9.89049144  -9.89045105] [1.09487485 1.09491109 1.09786887 1.38561251 1.64643799 1.843179
 1.84318084 2.25811305 2.27871233 2.27882283 2.71737754 2.71757756
 2.7492033  3.29960247 3.63561263 3.6357111  3.70047587 3.70048273
 3.76166143 4.75916704 4.75918378 4.89701713]
Ewald components = 2.3840572324607e-42, -1.14020834591461, 0.905546168994174
    CPU time for vj and vk     13.35 sec, wall time      1.32 sec
E1 = (4.800089619733429-4.917941054394248e-16j)  E_coul = (-42.831627176556566-1.2377577261746264e-14j)
Ewald components = 1.76043198403506e-15, -36.7282245445858, 23.9525572427489
cycle= 29 E= -50.8072048586601  delta_E= -5.2e-08  |g|= 0.000497  |ddm|= 0.00816
    CPU time for cycle= 29     13.39 sec, wall time      1.33 sec
HOMO = -9.87609077452  LUMO = 1.08022370721
     k-point                  mo_energy
   0 ( 0.000  0.000  0.000)   [-10.76813672  -9.88263156  -9.88259036  -9.87609077] [1.08022371 1.08389827 1.08393338 1.37869582 1.65002649 1.85187896
 1.85187919 2.24146491 2.24185596 2.24196444 2.72677333 2.72699512
 2.72710708 3.41739111 3.63799193 3.63826232 3.6383499  3.70947547
 3.70947587 4.76749906 4.76841506 4.76842994]
   1 ( 0.945 -0.000 -0.000)   [-10.76204831  -9.91071388  -9.8904904   -9.89045001] [1.09487922 1.09491545 1.09787184 1.38562588 1.64643811 1.84317996
 1.8431818  2.25811482 2.27871527 2.27882576 2.71738005 2.71758006
 2.74920431 3.29960216 3.6356139  3.63571237 3.70047825 3.70048512
 3.76166215 4.75916937 4.7591861  4.89701802]
Ewald components = 2.3840572324607e-42, -1.14020834591461, 0.905546168994174
    CPU time for vj and vk     13.34 sec, wall time      1.34 sec
E1 = (4.800078290352776-4.846519236281766e-16j)  E_coul = (-42.831615874988316-1.2219609005215126e-14j)
Ewald components = 1.76043198403506e-15, -36.7282245445858, 23.9525572427489
cycle= 30 E= -50.8072048864725  delta_E= -2.78e-08  |g|= 0.000372  |ddm|= 0.00727
    CPU time for cycle= 30     13.38 sec, wall time      1.36 sec
HOMO = -9.87607732889  LUMO = 1.08023082337
     k-point                  mo_energy
   0 ( 0.000  0.000  0.000)   [-10.76813374  -9.88262435  -9.88258315  -9.87607733] [1.08023082 1.08390502 1.08394012 1.37869989 1.65002378 1.85188155
 1.85188177 2.24146907 2.24186043 2.24196891 2.72678104 2.72700285
 2.72711447 3.41738802 3.63799366 3.63826477 3.63835235 3.70948119
 3.7094816  4.76750331 4.76842044 4.76843532]
   1 ( 0.945 -0.000 -0.000)   [-10.7620439   -9.91071272  -9.89048482  -9.89044444] [1.09488746 1.0949237  1.09787751 1.38564245 1.64643747 1.84318239
 1.84318424 2.25811874 2.27872088 2.27883137 2.717387   2.71758702
 2.74920903 3.29960062 3.63561674 3.63571521 3.70048362 3.70049049
 3.76166407 4.75917453 4.75919126 4.89702173]
Ewald components = 2.3840572324607e-42, -1.14020834591461, 0.905546168994174
    CPU time for vj and vk     13.47 sec, wall time      1.35 sec
E1 = (4.800043801852753-4.821989162129281e-16j)  E_coul = (-42.83158138903533-1.202412735351599e-14j)
Ewald components = 1.76043198403506e-15, -36.7282245445858, 23.9525572427489
cycle= 31 E= -50.8072048890195  delta_E= -2.55e-09  |g|= 0.000412  |ddm|= 0.00998
    CPU time for cycle= 31     13.51 sec, wall time      1.36 sec
HOMO = -9.8760793672  LUMO = 1.08022982599
     k-point                  mo_energy
   0 ( 0.000  0.000  0.000)   [-10.76813527  -9.88262658  -9.88258537  -9.87607937] [1.08022983 1.08390365 1.08393876 1.37869702 1.65002419 1.85188089
 1.85188111 2.2414679  2.24185942 2.2419679  2.72677878 2.72700059
 2.72711211 3.4173884  3.63799309 3.63826419 3.63835177 3.70948007
 3.70948049 4.76750228 4.76841934 4.76843421]
   1 ( 0.945 -0.000 -0.000)   [-10.76204512  -9.91071526  -9.89048716  -9.89044677] [1.09488613 1.09492236 1.0978757  1.3856407  1.6464378  1.84318172
 1.84318357 2.25811768 2.27871996 2.27883045 2.71738475 2.71758476
 2.74920687 3.29960097 3.63561605 3.63571452 3.70048253 3.7004894
 3.76166334 4.75917341 4.75919015 4.89702034]
Ewald components = 2.3840572324607e-42, -1.14020834591461, 0.905546168994174
    CPU time for vj and vk     13.38 sec, wall time      1.34 sec
E1 = (4.800056957358818-4.753413374719573e-16j)  E_coul = (-42.831594550150385-1.2576528360397354e-14j)
Ewald components = 1.76043198403506e-15, -36.7282245445858, 23.9525572427489
cycle= 32 E= -50.8072048946285  delta_E= -5.61e-09  |g|= 0.000333  |ddm|= 0.00103
    CPU time for cycle= 32     13.42 sec, wall time      1.35 sec
HOMO = -9.87608987499  LUMO = 1.08022358617
     k-point                  mo_energy
   0 ( 0.000  0.000  0.000)   [-10.76814114  -9.88263622  -9.88259501  -9.87608987] [1.08022359 1.08389678 1.08393188 1.37868613 1.65002646 1.85187779
 1.85187802 2.24146262 2.24185461 2.24196309 2.72676884 2.72699066
 2.72710204 3.41739068 3.63799068 3.6382615  3.63834908 3.70947447
 3.70947489 4.76749738 4.76841388 4.76842876]
   1 ( 0.945 -0.000 -0.000)   [-10.76205055  -9.91072397  -9.89049686  -9.89045647] [1.09487917 1.0949154  1.09786844 1.38562884 1.64643914 1.84317868
 1.84318053 2.25811293 2.27871504 2.27882553 2.71737505 2.71757506
 2.74919819 3.2996026  3.63561283 3.63571129 3.70047713 3.70048399
 3.7616604  4.759168   4.75918473 4.89701448]
Ewald components = 2.3840572324607e-42, -1.14020834591461, 0.905546168994174
    CPU time for vj and vk     13.28 sec, wall time      1.33 sec
E1 = (4.8001116736864065-4.790818349670323e-16j)  E_coul = (-42.83164927638393-1.4003880520474521e-14j)
Ewald components = 1.76043198403506e-15, -36.7282245445858, 23.9525572427489
cycle= 33 E= -50.8072049045344  delta_E= -9.91e-09  |g|= 0.000195  |ddm|= 0.00384
    CPU time for cycle= 33     13.32 sec, wall time      1.34 sec
HOMO = -9.8760897653  LUMO = 1.0802242747
     k-point                  mo_energy
   0 ( 0.000  0.000  0.000)   [-10.76814091  -9.88263579  -9.88259458  -9.87608977] [1.08022427 1.08389717 1.08393227 1.37868655 1.6500263  1.85187795
 1.85187817 2.24146286 2.24185482 2.2419633  2.72676919 2.72699101
 2.72710235 3.41739046 3.63799077 3.63826159 3.63834917 3.70947479
 3.7094752  4.76749763 4.76841414 4.76842902]
   1 ( 0.945 -0.000 -0.000)   [-10.76205044  -9.91072302  -9.89049639  -9.89045599] [1.09487948 1.0949157  1.09786838 1.38562911 1.64643899 1.84317883
 1.84318069 2.25811314 2.27871525 2.27882574 2.71737541 2.71757542
 2.74919859 3.29960242 3.63561298 3.63571144 3.70047744 3.70048431
 3.76166046 4.75916826 4.75918499 4.89701488]
Ewald components = 2.3840572324607e-42, -1.14020834591461, 0.905546168994174
    CPU time for vj and vk     13.32 sec, wall time      1.34 sec
E1 = (4.800109545540309-4.841979139684482e-16j)  E_coul = (-42.831647149798-1.1719249702613066e-14j)
Ewald components = 1.76043198403506e-15, -36.7282245445858, 23.9525572427489
Extra cycle  E= -50.8072049060946  delta_E= -1.56e-09  |g|= 0.000181  |ddm|= 0.000174
    CPU time for scf_cycle    646.67 sec, wall time     63.70 sec
    CPU time for SCF    646.75 sec, wall time     63.71 sec
converged SCF energy = -50.8072049060946
Using Python 2.x
Wavefunction successfully saved to QMCPACK HDF5 Format
Use: "convert4qmc -pyscf  scf.h5" to generate QMCPACK input files
